
     Program PWSCF v.6.4.1 starts on 28Oct2019 at 23:15:14 

     This program is part of the open-source Quantum ESPRESSO suite
     for quantum simulation of materials; please cite
         "P. Giannozzi et al., J. Phys.:Condens. Matter 21 395502 (2009);
         "P. Giannozzi et al., J. Phys.:Condens. Matter 29 465901 (2017);
          URL http://www.quantum-espresso.org", 
     in publications or presentations arising from this work. More details at
     http://www.quantum-espresso.org/quote

     Parallel version (MPI), running on     2 processors

     MPI processes distributed on     1 nodes
     R & G space division:  proc/nbgrp/npool/nimage =       2
     Reading input from antimonene_B.1_vc_relax.in

     Current dimensions of program PWSCF are:
     Max number of different atomic species (ntypx) = 10
     Max number of k-points (npk) =  40000
     Max angular momentum in pseudopotentials (lmaxx) =  3
               file Sb.pbe-dn-kjpaw_psl.1.0.0.UPF: wavefunction(s)  5S 4D renormalized

     Subspace diagonalization in iterative solution of the eigenvalue problem:
     a serial algorithm will be used

 
     Parallelization info
     --------------------
     sticks:   dense  smooth     PW     G-vecs:    dense   smooth      PW
     Min         518     384    111                97072    64566    9825
     Max         521     385    112                97077    64597    9826
     Sum        1039     769    223               194149   129163   19651
 


     bravais-lattice index     =            4
     lattice parameter (alat)  =       7.7857  a.u.
     unit-cell volume          =    2976.0685 (a.u.)^3
     number of atoms/cell      =            2
     number of atomic types    =            1
     number of electrons       =        30.00
     number of Kohn-Sham states=           19
     kinetic-energy cutoff     =      47.0000  Ry
     charge density cutoff     =     246.0000  Ry
     convergence threshold     =      1.0E-08
     mixing beta               =       0.3000
     number of iterations used =            8  plain     mixing
     Exchange-correlation      = SLA PW PBX PBC ( 1  4  3  4 0 0)
     nstep                     =           50


     celldm(1)=   7.785672  celldm(2)=   1.000000  celldm(3)=   7.281553
     celldm(4)=   0.000000  celldm(5)=   0.000000  celldm(6)=   0.000000

     crystal axes: (cart. coord. in units of alat)
               a(1) = (   1.000000   0.000000   0.000000 )  
               a(2) = (  -0.500000   0.866025   0.000000 )  
               a(3) = (   0.000000   0.000000   7.281553 )  

     reciprocal axes: (cart. coord. in units 2 pi/alat)
               b(1) = (  1.000000  0.577350  0.000000 )  
               b(2) = (  0.000000  1.154701  0.000000 )  
               b(3) = (  0.000000  0.000000  0.137333 )  


     PseudoPot. # 1 for Sb read from file:
     /home/latifah/quantumEspresso_2019/pslibrary.1.0.0/Sb.pbe-dn-kjpaw_psl.1.0.0.UPF
     MD5 check sum: 2f07ff22ac188143f4ca0c2e47e96dbe
     Pseudo is Projector augmented-wave + core cor, Zval = 15.0
     Generated using "atomic" code by A. Dal Corso v.6.4.1
     Shape of augmentation charge: PSQ
     Using radial grid of 1243 points,  6 beta functions with: 
                l(1) =   0
                l(2) =   0
                l(3) =   1
                l(4) =   1
                l(5) =   2
                l(6) =   2
     Q(r) pseudized with 0 coefficients 


     atomic species   valence    mass     pseudopotential
        Sb            15.00   121.76000     Sb( 1.00)

      6 Sym. Ops. (no inversion) found



   Cartesian axes

     site n.     atom                  positions (alat units)
         1           Sb  tau(   1) = (  -0.0000000   0.5773503   0.0000000  )
         2           Sb  tau(   2) = (   0.5000000   0.2886751   0.4004854  )

     number of k points=     4  Marzari-Vanderbilt smearing, width (Ry)=  0.0001
                       cart. coord. in units 2pi/alat
        k(    1) = (   0.0000000   0.0000000   0.0000000), wk =   0.1250000
        k(    2) = (   0.0000000   0.2886751   0.0000000), wk =   0.7500000
        k(    3) = (   0.0000000  -0.5773503   0.0000000), wk =   0.3750000
        k(    4) = (   0.2500000   0.4330127   0.0000000), wk =   0.7500000

     Dense  grid:   194149 G-vectors     FFT dimensions: (  40,  40, 288)

     Smooth grid:   129163 G-vectors     FFT dimensions: (  36,  36, 250)

     Estimated max dynamical RAM per process >     372.98 MB

     Estimated total dynamical RAM >     745.95 MB

     Check: negative core charge=   -0.000001

     Initial potential from superposition of free atoms

     starting charge   29.99875, renormalised to   30.00000

     negative rho (up, down):  3.634E-03 0.000E+00
     Starting wfcs are   18 randomized atomic wfcs +    1 random wfcs
     Checking if some PAW data can be deallocated... 

     total cpu time spent up to now is       27.6 secs

     Self-consistent Calculation

     iteration #  1     ecut=    47.00 Ry     beta= 0.30
     Davidson diagonalization with overlap
     ethr =  1.00E-02,  avg # of iterations =  5.0

     Threshold (ethr) on eigenvalues was too large:
     Diagonalizing with lowered threshold

     Davidson diagonalization with overlap
     ethr =  6.67E-05,  avg # of iterations =  5.5

     negative rho (up, down):  3.612E-03 0.000E+00

     total cpu time spent up to now is       49.1 secs

     total energy              =    -951.64179428 Ry
     Harris-Foulkes estimate   =    -951.64411377 Ry
     estimated scf accuracy    <       0.01993728 Ry

     iteration #  2     ecut=    47.00 Ry     beta= 0.30
     Davidson diagonalization with overlap
     ethr =  6.65E-05,  avg # of iterations =  1.0

     negative rho (up, down):  3.632E-03 0.000E+00

     total cpu time spent up to now is       58.8 secs

     total energy              =    -951.64055724 Ry
     Harris-Foulkes estimate   =    -951.64202809 Ry
     estimated scf accuracy    <       0.00854209 Ry

     iteration #  3     ecut=    47.00 Ry     beta= 0.30
     Davidson diagonalization with overlap
     ethr =  2.85E-05,  avg # of iterations =  7.5

     negative rho (up, down):  3.596E-03 0.000E+00

     total cpu time spent up to now is       72.4 secs

     total energy              =    -951.64112811 Ry
     Harris-Foulkes estimate   =    -951.64126293 Ry
     estimated scf accuracy    <       0.00055143 Ry

     iteration #  4     ecut=    47.00 Ry     beta= 0.30
     Davidson diagonalization with overlap
     ethr =  1.84E-06,  avg # of iterations =  7.8

     negative rho (up, down):  3.551E-03 0.000E+00

     total cpu time spent up to now is       84.7 secs

     total energy              =    -951.64116896 Ry
     Harris-Foulkes estimate   =    -951.64121816 Ry
     estimated scf accuracy    <       0.00025956 Ry

     iteration #  5     ecut=    47.00 Ry     beta= 0.30
     Davidson diagonalization with overlap
     ethr =  8.65E-07,  avg # of iterations =  4.5

     negative rho (up, down):  3.543E-03 0.000E+00

     total cpu time spent up to now is       97.7 secs

     total energy              =    -951.64122196 Ry
     Harris-Foulkes estimate   =    -951.64123771 Ry
     estimated scf accuracy    <       0.00007457 Ry

     iteration #  6     ecut=    47.00 Ry     beta= 0.30
     Davidson diagonalization with overlap
     ethr =  2.49E-07,  avg # of iterations =  1.5

     negative rho (up, down):  3.534E-03 0.000E+00

     total cpu time spent up to now is      108.1 secs

     total energy              =    -951.64121028 Ry
     Harris-Foulkes estimate   =    -951.64122448 Ry
     estimated scf accuracy    <       0.00003153 Ry

     iteration #  7     ecut=    47.00 Ry     beta= 0.30
     Davidson diagonalization with overlap
     ethr =  1.05E-07,  avg # of iterations =  7.0

     negative rho (up, down):  3.525E-03 0.000E+00

     total cpu time spent up to now is      124.0 secs

     total energy              =    -951.64122034 Ry
     Harris-Foulkes estimate   =    -951.64122591 Ry
     estimated scf accuracy    <       0.00001313 Ry

     iteration #  8     ecut=    47.00 Ry     beta= 0.30
     Davidson diagonalization with overlap
     ethr =  4.38E-08,  avg # of iterations =  2.0

     negative rho (up, down):  3.519E-03 0.000E+00

     total cpu time spent up to now is      137.8 secs

     total energy              =    -951.64122106 Ry
     Harris-Foulkes estimate   =    -951.64122167 Ry
     estimated scf accuracy    <       0.00000123 Ry

     iteration #  9     ecut=    47.00 Ry     beta= 0.30
     Davidson diagonalization with overlap
     ethr =  4.09E-09,  avg # of iterations =  2.2

     negative rho (up, down):  3.516E-03 0.000E+00

     total cpu time spent up to now is      151.1 secs

     total energy              =    -951.64122132 Ry
     Harris-Foulkes estimate   =    -951.64122131 Ry
     estimated scf accuracy    <       0.00000003 Ry

     iteration # 10     ecut=    47.00 Ry     beta= 0.30
     Davidson diagonalization with overlap
     ethr =  9.16E-11,  avg # of iterations =  2.5

     negative rho (up, down):  3.510E-03 0.000E+00

     total cpu time spent up to now is      161.8 secs

     End of self-consistent calculation

          k = 0.0000 0.0000 0.0000 ( 16293 PWs)   bands (ev):

   -31.3469 -31.3469 -31.2764 -31.2764 -31.2434 -31.1749 -31.1749 -31.1472
   -31.0975 -31.0975 -14.0341  -9.1396  -3.4349  -2.7752  -2.7752  -1.2158
    -0.0144  -0.0144   1.1898

          k = 0.0000 0.2887 0.0000 ( 16215 PWs)   bands (ev):

   -31.3433 -31.3177 -31.2738 -31.2589 -31.2330 -31.1877 -31.1783 -31.1546
   -31.1301 -31.0992 -13.3883  -9.3115  -5.3874  -3.7182  -3.3728  -1.4460
     0.6321   0.6696   1.8412

          k = 0.0000-0.5774 0.0000 ( 16122 PWs)   bands (ev):

   -31.3396 -31.2847 -31.2526 -31.2217 -31.2203 -31.2141 -31.1940 -31.1903
   -31.1533 -31.1010 -12.1261 -10.5623  -5.7476  -4.3208  -4.2775  -1.1512
    -0.3924   0.7143   2.2551

          k = 0.2500 0.4330 0.0000 ( 16160 PWs)   bands (ev):

   -31.3400 -31.2717 -31.2612 -31.2448 -31.2179 -31.2078 -31.1859 -31.1786
   -31.1603 -31.1031 -12.2309 -10.2990  -5.7883  -5.2964  -3.8834  -0.8134
    -0.0856   1.0422   3.2641

     the Fermi energy is    -2.1420 ev

!    total energy              =    -951.64122132 Ry
     Harris-Foulkes estimate   =    -951.64122133 Ry
     estimated scf accuracy    <          8.3E-09 Ry

     total all-electron energy =    -25926.373404 Ry

     The total energy is the sum of the following terms:

     one-electron contribution =   -1770.47030217 Ry
     hartree contribution      =     892.14945397 Ry
     xc contribution           =     -99.44745106 Ry
     ewald contribution        =     607.10064366 Ry
     one-center paw contrib.   =    -580.97356572 Ry
     smearing contrib. (-TS)   =       0.00000000 Ry

     convergence has been achieved in  10 iterations

     negative rho (up, down):  3.510E-03 0.000E+00

     Forces acting on atoms (cartesian axes, Ry/au):

     atom    1 type  1   force =     0.00000000    0.00000000    0.00620772
     atom    2 type  1   force =     0.00000000    0.00000000   -0.00620772

     Total force =     0.008779     Total SCF correction =     0.000345


     Computing stress (Cartesian axis) and pressure


     negative rho (up, down):  3.510E-03 0.000E+00
          total   stress  (Ry/bohr**3)                   (kbar)     P=    0.70
   0.00001077   0.00000000   0.00000000          1.59      0.00      0.00
   0.00000000   0.00001077   0.00000000          0.00      1.59      0.00
   0.00000000   0.00000000  -0.00000719          0.00      0.00     -1.06


     BFGS Geometry Optimization

     number of scf cycles    =   1
     number of bfgs steps    =   0

     enthalpy new            =    -951.6412213229 Ry

     new trust radius        =       0.0062077167 bohr
     new conv_thr            =       0.0000000100 Ry

     new unit-cell volume =   2977.67208 a.u.^3 (   441.24547 Ang^3 )
     density =      0.91644 g/cm^3

CELL_PARAMETERS (alat=  7.78567167)
   1.000269374   0.000000000   0.000000000
  -0.500134687   0.866258689   0.000000000
   0.000000000   0.000000000   7.281553398

ATOMIC_POSITIONS (crystal)
Sb       0.333333333   0.666666667   0.000109499
Sb       0.666666667   0.333333333   0.054890501



     Writing output data file antimonene_B.save/
     NEW-OLD atomic charge density approx. for the potential

     Check: negative core charge=   -0.000001

     negative rho (up, down):  3.531E-03 0.000E+00
     extrapolated charge   30.01616, renormalised to   30.00000

     total cpu time spent up to now is      217.5 secs

     Self-consistent Calculation

     iteration #  1     ecut=    47.00 Ry     beta= 0.30
     Davidson diagonalization with overlap
     c_bands:  1 eigenvalues not converged
     ethr =  1.00E-06,  avg # of iterations = 10.2

     negative rho (up, down):  3.515E-03 0.000E+00

     total cpu time spent up to now is      237.7 secs

     total energy              =    -951.64109819 Ry
     Harris-Foulkes estimate   =    -950.71376914 Ry
     estimated scf accuracy    <       0.00017505 Ry

     iteration #  2     ecut=    47.00 Ry     beta= 0.30
     Davidson diagonalization with overlap
     ethr =  5.84E-07,  avg # of iterations =  6.8

     negative rho (up, down):  3.518E-03 0.000E+00

     total cpu time spent up to now is      254.6 secs

     total energy              =    -951.64129743 Ry
     Harris-Foulkes estimate   =    -951.64131204 Ry
     estimated scf accuracy    <       0.00006275 Ry

     iteration #  3     ecut=    47.00 Ry     beta= 0.30
     Davidson diagonalization with overlap
     ethr =  2.09E-07,  avg # of iterations =  1.2

     negative rho (up, down):  3.523E-03 0.000E+00

     total cpu time spent up to now is      264.1 secs

     total energy              =    -951.64129597 Ry
     Harris-Foulkes estimate   =    -951.64129999 Ry
     estimated scf accuracy    <       0.00002370 Ry

     iteration #  4     ecut=    47.00 Ry     beta= 0.30
     Davidson diagonalization with overlap
     ethr =  7.90E-08,  avg # of iterations =  2.2

     negative rho (up, down):  3.524E-03 0.000E+00

     total cpu time spent up to now is      276.8 secs

     total energy              =    -951.64130119 Ry
     Harris-Foulkes estimate   =    -951.64129955 Ry
     estimated scf accuracy    <       0.00000192 Ry

     iteration #  5     ecut=    47.00 Ry     beta= 0.30
     Davidson diagonalization with overlap
     ethr =  6.41E-09,  avg # of iterations =  2.0

     negative rho (up, down):  3.524E-03 0.000E+00

     total cpu time spent up to now is      288.8 secs

     total energy              =    -951.64130302 Ry
     Harris-Foulkes estimate   =    -951.64130140 Ry
     estimated scf accuracy    <       0.00000071 Ry

     iteration #  6     ecut=    47.00 Ry     beta= 0.30
     Davidson diagonalization with overlap
     ethr =  2.38E-09,  avg # of iterations =  2.0

     negative rho (up, down):  3.526E-03 0.000E+00

     total cpu time spent up to now is      300.0 secs

     total energy              =    -951.64130515 Ry
     Harris-Foulkes estimate   =    -951.64130307 Ry
     estimated scf accuracy    <       0.00000058 Ry

     iteration #  7     ecut=    47.00 Ry     beta= 0.30
     Davidson diagonalization with overlap
     ethr =  1.95E-09,  avg # of iterations =  2.0

     negative rho (up, down):  3.526E-03 0.000E+00

     total cpu time spent up to now is      310.6 secs

     total energy              =    -951.64130559 Ry
     Harris-Foulkes estimate   =    -951.64130528 Ry
     estimated scf accuracy    <       0.00000047 Ry

     iteration #  8     ecut=    47.00 Ry     beta= 0.30
     Davidson diagonalization with overlap
     ethr =  1.56E-09,  avg # of iterations =  2.2

     negative rho (up, down):  3.527E-03 0.000E+00

     total cpu time spent up to now is      321.7 secs

     total energy              =    -951.64130582 Ry
     Harris-Foulkes estimate   =    -951.64130567 Ry
     estimated scf accuracy    <       0.00000004 Ry

     iteration #  9     ecut=    47.00 Ry     beta= 0.30
     Davidson diagonalization with overlap
     ethr =  1.22E-10,  avg # of iterations =  3.0

     negative rho (up, down):  3.527E-03 0.000E+00

     total cpu time spent up to now is      334.4 secs

     End of self-consistent calculation

          k = 0.0000 0.0000 0.0000 ( 16293 PWs)   bands (ev):

   -31.3563 -31.3563 -31.2850 -31.2850 -31.2513 -31.1822 -31.1822 -31.1543
   -31.1043 -31.1043 -14.0548  -9.1323  -3.4265  -2.8004  -2.8004  -1.2374
    -0.0252  -0.0252   1.1874

          k =-0.0000 0.2886 0.0000 ( 16215 PWs)   bands (ev):

   -31.3527 -31.3268 -31.2823 -31.2673 -31.2409 -31.1952 -31.1855 -31.1620
   -31.1371 -31.1060 -13.4087  -9.3117  -5.4054  -3.7430  -3.3688  -1.4519
     0.6284   0.6691   1.8389

          k = 0.0000-0.5772 0.0000 ( 16122 PWs)   bands (ev):

   -31.3490 -31.2934 -31.2610 -31.2295 -31.2283 -31.2217 -31.2013 -31.1985
   -31.1601 -31.1078 -12.1455 -10.5765  -5.7525  -4.3456  -4.2772  -1.1651
    -0.3803   0.7198   2.2574

          k = 0.2499 0.4329 0.0000 ( 16160 PWs)   bands (ev):

   -31.3494 -31.2802 -31.2695 -31.2532 -31.2257 -31.2156 -31.1940 -31.1858
   -31.1672 -31.1100 -12.2503 -10.3118  -5.8087  -5.3036  -3.8851  -0.8068
    -0.0769   1.0433   3.2630

     the Fermi energy is    -2.1444 ev

!    total energy              =    -951.64130585 Ry
     Harris-Foulkes estimate   =    -951.64130586 Ry
     estimated scf accuracy    <          4.0E-09 Ry

     total all-electron energy =    -25926.373488 Ry

     The total energy is the sum of the following terms:

     one-electron contribution =   -1770.65397324 Ry
     hartree contribution      =     892.23356580 Ry
     xc contribution           =     -99.45009212 Ry
     ewald contribution        =     607.20346127 Ry
     one-center paw contrib.   =    -580.97426756 Ry
     smearing contrib. (-TS)   =       0.00000000 Ry

     convergence has been achieved in   9 iterations

     negative rho (up, down):  3.527E-03 0.000E+00

     Forces acting on atoms (cartesian axes, Ry/au):

     atom    1 type  1   force =     0.00000000    0.00000000    0.00444070
     atom    2 type  1   force =     0.00000000    0.00000000   -0.00444070

     Total force =     0.006280     Total SCF correction =     0.000260


     Computing stress (Cartesian axis) and pressure


     negative rho (up, down):  3.527E-03 0.000E+00
          total   stress  (Ry/bohr**3)                   (kbar)     P=    0.94
   0.00001187   0.00000000   0.00000000          1.75      0.00      0.00
   0.00000000   0.00001187   0.00000000          0.00      1.75      0.00
   0.00000000   0.00000000  -0.00000457          0.00      0.00     -0.67


     number of scf cycles    =   2
     number of bfgs steps    =   1

     enthalpy old            =    -951.6412213229 Ry
     enthalpy new            =    -951.6413058537 Ry

     CASE: enthalpy_new < enthalpy_old

     new trust radius        =       0.0068284884 bohr
     new conv_thr            =       0.0000000044 Ry

     new unit-cell volume =   2980.26891 a.u.^3 (   441.63028 Ang^3 )
     density =      0.91564 g/cm^3

CELL_PARAMETERS (alat=  7.78567167)
   1.000705447  -0.000000000   0.000000000
  -0.500352723   0.866636339   0.000000000
   0.000000000   0.000000000   7.281553398

ATOMIC_POSITIONS (crystal)
Sb       0.333333333   0.666666667   0.000229949
Sb       0.666666667   0.333333333   0.054770051



     Writing output data file antimonene_B.save/
     NEW-OLD atomic charge density approx. for the potential

     Check: negative core charge=   -0.000001

     negative rho (up, down):  3.558E-03 0.000E+00
     extrapolated charge   30.02614, renormalised to   30.00000

     total cpu time spent up to now is      384.3 secs

     Self-consistent Calculation

     iteration #  1     ecut=    47.00 Ry     beta= 0.30
     Davidson diagonalization with overlap
     c_bands:  1 eigenvalues not converged
     c_bands:  1 eigenvalues not converged
     ethr =  1.00E-06,  avg # of iterations = 13.5

     negative rho (up, down):  3.531E-03 0.000E+00

     total cpu time spent up to now is      401.4 secs

     total energy              =    -951.64086390 Ry
     Harris-Foulkes estimate   =    -950.14424681 Ry
     estimated scf accuracy    <       0.00044765 Ry

     iteration #  2     ecut=    47.00 Ry     beta= 0.30
     Davidson diagonalization with overlap
     ethr =  1.49E-06,  avg # of iterations =  9.0

     negative rho (up, down):  3.537E-03 0.000E+00

     total cpu time spent up to now is      416.4 secs

     total energy              =    -951.64137986 Ry
     Harris-Foulkes estimate   =    -951.64142741 Ry
     estimated scf accuracy    <       0.00016702 Ry

     iteration #  3     ecut=    47.00 Ry     beta= 0.30
     Davidson diagonalization with overlap
     ethr =  5.57E-07,  avg # of iterations =  1.2

     negative rho (up, down):  3.545E-03 0.000E+00

     total cpu time spent up to now is      425.8 secs

     total energy              =    -951.64136550 Ry
     Harris-Foulkes estimate   =    -951.64138634 Ry
     estimated scf accuracy    <       0.00006408 Ry

     iteration #  4     ecut=    47.00 Ry     beta= 0.30
     Davidson diagonalization with overlap
     ethr =  2.14E-07,  avg # of iterations =  2.2

     negative rho (up, down):  3.546E-03 0.000E+00

     total cpu time spent up to now is      437.4 secs

     total energy              =    -951.64137583 Ry
     Harris-Foulkes estimate   =    -951.64137372 Ry
     estimated scf accuracy    <       0.00000662 Ry

     iteration #  5     ecut=    47.00 Ry     beta= 0.30
     Davidson diagonalization with overlap
     ethr =  2.21E-08,  avg # of iterations =  1.8

     negative rho (up, down):  3.547E-03 0.000E+00

     total cpu time spent up to now is      448.7 secs

     total energy              =    -951.64137741 Ry
     Harris-Foulkes estimate   =    -951.64137600 Ry
     estimated scf accuracy    <       0.00000722 Ry

     iteration #  6     ecut=    47.00 Ry     beta= 0.30
     Davidson diagonalization with overlap
     ethr =  2.21E-08,  avg # of iterations =  1.0

     negative rho (up, down):  3.550E-03 0.000E+00

     total cpu time spent up to now is      458.0 secs

     total energy              =    -951.64137865 Ry
     Harris-Foulkes estimate   =    -951.64137755 Ry
     estimated scf accuracy    <       0.00000551 Ry

     iteration #  7     ecut=    47.00 Ry     beta= 0.30
     Davidson diagonalization with overlap
     ethr =  1.84E-08,  avg # of iterations =  2.2

     negative rho (up, down):  3.552E-03 0.000E+00

     total cpu time spent up to now is      468.2 secs

     total energy              =    -951.64138004 Ry
     Harris-Foulkes estimate   =    -951.64137925 Ry
     estimated scf accuracy    <       0.00000136 Ry

     iteration #  8     ecut=    47.00 Ry     beta= 0.30
     Davidson diagonalization with overlap
     ethr =  4.55E-09,  avg # of iterations =  2.0

     negative rho (up, down):  3.554E-03 0.000E+00

     total cpu time spent up to now is      478.8 secs

     total energy              =    -951.64138029 Ry
     Harris-Foulkes estimate   =    -951.64138014 Ry
     estimated scf accuracy    <       0.00000069 Ry

     iteration #  9     ecut=    47.00 Ry     beta= 0.30
     Davidson diagonalization with overlap
     ethr =  2.31E-09,  avg # of iterations =  3.0

     negative rho (up, down):  3.553E-03 0.000E+00

     total cpu time spent up to now is      493.2 secs

     total energy              =    -951.64138060 Ry
     Harris-Foulkes estimate   =    -951.64138068 Ry
     estimated scf accuracy    <       0.00000013 Ry

     iteration # 10     ecut=    47.00 Ry     beta= 0.30
     Davidson diagonalization with overlap
     ethr =  4.17E-10,  avg # of iterations =  2.0

     negative rho (up, down):  3.553E-03 0.000E+00

     total cpu time spent up to now is      506.5 secs

     total energy              =    -951.64138061 Ry
     Harris-Foulkes estimate   =    -951.64138062 Ry
     estimated scf accuracy    <          8.7E-09 Ry

     iteration # 11     ecut=    47.00 Ry     beta= 0.30
     Davidson diagonalization with overlap
     ethr =  2.90E-11,  avg # of iterations =  3.0

     negative rho (up, down):  3.553E-03 0.000E+00

     total cpu time spent up to now is      519.7 secs

     total energy              =    -951.64138061 Ry
     Harris-Foulkes estimate   =    -951.64138061 Ry
     estimated scf accuracy    <          4.8E-09 Ry

     iteration # 12     ecut=    47.00 Ry     beta= 0.30
     Davidson diagonalization with overlap
     ethr =  1.60E-11,  avg # of iterations =  2.0

     negative rho (up, down):  3.553E-03 0.000E+00

     total cpu time spent up to now is      531.8 secs

     End of self-consistent calculation

          k = 0.0000 0.0000 0.0000 ( 16293 PWs)   bands (ev):

   -31.3673 -31.3673 -31.2953 -31.2953 -31.2607 -31.1911 -31.1911 -31.1631
   -31.1126 -31.1126 -14.0770  -9.1249  -3.4173  -2.8302  -2.8302  -1.2644
    -0.0394  -0.0394   1.1835

          k = 0.0000 0.2885 0.0000 ( 16215 PWs)   bands (ev):

   -31.3638 -31.3376 -31.2925 -31.2774 -31.2504 -31.2042 -31.1944 -31.1710
   -31.1456 -31.1144 -13.4308  -9.3132  -5.4254  -3.7718  -3.3650  -1.4598
     0.6223   0.6663   1.8359

          k =-0.0000-0.5769 0.0000 ( 16122 PWs)   bands (ev):

   -31.3601 -31.3037 -31.2710 -31.2390 -31.2380 -31.2309 -31.2102 -31.2084
   -31.1685 -31.1163 -12.1671 -10.5929  -5.7579  -4.3740  -4.2772  -1.1820
    -0.3677   0.7241   2.2592

          k = 0.2498 0.4327 0.0000 ( 16160 PWs)   bands (ev):

   -31.3605 -31.2904 -31.2794 -31.2631 -31.2351 -31.2250 -31.2038 -31.1946
   -31.1756 -31.1185 -12.2718 -10.3271  -5.8314  -5.3116  -3.8878  -0.8003
    -0.0686   1.0417   3.2607

     the Fermi energy is    -2.1481 ev

!    total energy              =    -951.64138061 Ry
     Harris-Foulkes estimate   =    -951.64138061 Ry
     estimated scf accuracy    <          3.4E-10 Ry

     total all-electron energy =    -25926.373563 Ry

     The total energy is the sum of the following terms:

     one-electron contribution =   -1770.43746386 Ry
     hartree contribution      =     892.11598921 Ry
     xc contribution           =     -99.45252924 Ry
     ewald contribution        =     607.10740095 Ry
     one-center paw contrib.   =    -580.97477768 Ry
     smearing contrib. (-TS)   =       0.00000000 Ry

     convergence has been achieved in  12 iterations

     negative rho (up, down):  3.553E-03 0.000E+00

     Forces acting on atoms (cartesian axes, Ry/au):

     atom    1 type  1   force =     0.00000000    0.00000000    0.00199356
     atom    2 type  1   force =     0.00000000    0.00000000   -0.00199356

     Total force =     0.002819     Total SCF correction =     0.000191


     Computing stress (Cartesian axis) and pressure


     negative rho (up, down):  3.553E-03 0.000E+00
          total   stress  (Ry/bohr**3)                   (kbar)     P=    1.15
   0.00001268  -0.00000000   0.00000000          1.87     -0.00      0.00
  -0.00000000   0.00001268   0.00000000         -0.00      1.87      0.00
   0.00000000   0.00000000  -0.00000192          0.00      0.00     -0.28


     number of scf cycles    =   3
     number of bfgs steps    =   2

     enthalpy old            =    -951.6413058537 Ry
     enthalpy new            =    -951.6413806094 Ry

     CASE: enthalpy_new < enthalpy_old

     new trust radius        =       0.0102427326 bohr
     new conv_thr            =       0.0000000020 Ry

     new unit-cell volume =   2985.86323 a.u.^3 (   442.45928 Ang^3 )
     density =      0.91392 g/cm^3

CELL_PARAMETERS (alat=  7.78567167)
   1.001644228  -0.000000000   0.000000000
  -0.500822114   0.867449347   0.000000000
   0.000000000   0.000000000   7.281553398

ATOMIC_POSITIONS (crystal)
Sb       0.333333333   0.666666667   0.000398410
Sb       0.666666667   0.333333333   0.054601590



     Writing output data file antimonene_B.save/
     NEW-OLD atomic charge density approx. for the potential

     Check: negative core charge=   -0.000001

     negative rho (up, down):  3.615E-03 0.000E+00
     extrapolated charge   30.05621, renormalised to   30.00000

     total cpu time spent up to now is      579.7 secs

     Self-consistent Calculation

     iteration #  1     ecut=    47.00 Ry     beta= 0.30
     Davidson diagonalization with overlap
     c_bands:  1 eigenvalues not converged
     c_bands:  1 eigenvalues not converged
     ethr =  1.00E-06,  avg # of iterations = 17.8

     negative rho (up, down):  3.547E-03 0.000E+00

     total cpu time spent up to now is      601.7 secs

     total energy              =    -951.63907233 Ry
     Harris-Foulkes estimate   =    -948.42929406 Ry
     estimated scf accuracy    <       0.00208664 Ry

     iteration #  2     ecut=    47.00 Ry     beta= 0.30
     Davidson diagonalization with overlap
     ethr =  6.96E-06,  avg # of iterations =  6.8

     negative rho (up, down):  3.562E-03 0.000E+00

     total cpu time spent up to now is      617.5 secs

     total energy              =    -951.64150742 Ry
     Harris-Foulkes estimate   =    -951.64175205 Ry
     estimated scf accuracy    <       0.00079583 Ry

     iteration #  3     ecut=    47.00 Ry     beta= 0.30
     Davidson diagonalization with overlap
     ethr =  2.65E-06,  avg # of iterations =  2.2

     negative rho (up, down):  3.578E-03 0.000E+00

     total cpu time spent up to now is      628.1 secs

     total energy              =    -951.64142032 Ry
     Harris-Foulkes estimate   =    -951.64153733 Ry
     estimated scf accuracy    <       0.00030811 Ry

     iteration #  4     ecut=    47.00 Ry     beta= 0.30
     Davidson diagonalization with overlap
     ethr =  1.03E-06,  avg # of iterations =  3.5

     negative rho (up, down):  3.580E-03 0.000E+00

     total cpu time spent up to now is      639.6 secs

     total energy              =    -951.64146242 Ry
     Harris-Foulkes estimate   =    -951.64145493 Ry
     estimated scf accuracy    <       0.00004019 Ry

     iteration #  5     ecut=    47.00 Ry     beta= 0.30
     Davidson diagonalization with overlap
     ethr =  1.34E-07,  avg # of iterations =  1.0

     negative rho (up, down):  3.591E-03 0.000E+00

     total cpu time spent up to now is      650.3 secs

     total energy              =    -951.64145405 Ry
     Harris-Foulkes estimate   =    -951.64146317 Ry
     estimated scf accuracy    <       0.00005215 Ry

     iteration #  6     ecut=    47.00 Ry     beta= 0.30
     Davidson diagonalization with overlap
     ethr =  1.34E-07,  avg # of iterations =  2.0

     negative rho (up, down):  3.599E-03 0.000E+00

     total cpu time spent up to now is      661.6 secs

     total energy              =    -951.64145788 Ry
     Harris-Foulkes estimate   =    -951.64145761 Ry
     estimated scf accuracy    <       0.00001689 Ry

     iteration #  7     ecut=    47.00 Ry     beta= 0.30
     Davidson diagonalization with overlap
     ethr =  5.63E-08,  avg # of iterations =  2.2

     negative rho (up, down):  3.600E-03 0.000E+00

     total cpu time spent up to now is      672.2 secs

     total energy              =    -951.64146016 Ry
     Harris-Foulkes estimate   =    -951.64145976 Ry
     estimated scf accuracy    <       0.00000494 Ry

     iteration #  8     ecut=    47.00 Ry     beta= 0.30
     Davidson diagonalization with overlap
     ethr =  1.65E-08,  avg # of iterations =  1.0

     negative rho (up, down):  3.605E-03 0.000E+00

     total cpu time spent up to now is      682.7 secs

     total energy              =    -951.64146096 Ry
     Harris-Foulkes estimate   =    -951.64146019 Ry
     estimated scf accuracy    <       0.00000400 Ry

     iteration #  9     ecut=    47.00 Ry     beta= 0.30
     Davidson diagonalization with overlap
     ethr =  1.33E-08,  avg # of iterations =  4.5

     negative rho (up, down):  3.607E-03 0.000E+00

     total cpu time spent up to now is      699.0 secs

     total energy              =    -951.64146198 Ry
     Harris-Foulkes estimate   =    -951.64146182 Ry
     estimated scf accuracy    <       0.00000037 Ry

     iteration # 10     ecut=    47.00 Ry     beta= 0.30
     Davidson diagonalization with overlap
     ethr =  1.23E-09,  avg # of iterations =  3.0

     negative rho (up, down):  3.606E-03 0.000E+00

     total cpu time spent up to now is      716.4 secs

     total energy              =    -951.64146199 Ry
     Harris-Foulkes estimate   =    -951.64146232 Ry
     estimated scf accuracy    <       0.00000043 Ry

     iteration # 11     ecut=    47.00 Ry     beta= 0.30
     Davidson diagonalization with overlap
     ethr =  1.23E-09,  avg # of iterations =  2.2

     negative rho (up, down):  3.605E-03 0.000E+00

     total cpu time spent up to now is      728.8 secs

     total energy              =    -951.64146207 Ry
     Harris-Foulkes estimate   =    -951.64146207 Ry
     estimated scf accuracy    <          5.0E-09 Ry

     iteration # 12     ecut=    47.00 Ry     beta= 0.30
     Davidson diagonalization with overlap
     ethr =  1.66E-11,  avg # of iterations =  3.0

     negative rho (up, down):  3.606E-03 0.000E+00

     total cpu time spent up to now is      742.2 secs

     total energy              =    -951.64146207 Ry
     Harris-Foulkes estimate   =    -951.64146207 Ry
     estimated scf accuracy    <          7.3E-09 Ry

     iteration # 13     ecut=    47.00 Ry     beta= 0.30
     Davidson diagonalization with overlap
     ethr =  1.66E-11,  avg # of iterations =  2.0

     negative rho (up, down):  3.606E-03 0.000E+00

     total cpu time spent up to now is      753.8 secs

     total energy              =    -951.64146206 Ry
     Harris-Foulkes estimate   =    -951.64146207 Ry
     estimated scf accuracy    <          2.2E-09 Ry

     iteration # 14     ecut=    47.00 Ry     beta= 0.30
     Davidson diagonalization with overlap
     ethr =  7.47E-12,  avg # of iterations =  2.8

     negative rho (up, down):  3.606E-03 0.000E+00

     total cpu time spent up to now is      767.6 secs

     End of self-consistent calculation

          k = 0.0000 0.0000 0.0000 ( 16293 PWs)   bands (ev):

   -31.3835 -31.3835 -31.3105 -31.3105 -31.2748 -31.2045 -31.2045 -31.1765
   -31.1255 -31.1255 -14.1043  -9.1147  -3.4035  -2.8744  -2.8744  -1.3076
    -0.0627  -0.0627   1.1778

          k = 0.0000 0.2882 0.0000 ( 16215 PWs)   bands (ev):

   -31.3800 -31.3535 -31.3075 -31.2923 -31.2645 -31.2179 -31.2078 -31.1848
   -31.1586 -31.1274 -13.4588  -9.3169  -5.4519  -3.8134  -3.3598  -1.4727
     0.6102   1.8305   1.9763

          k =-0.0000-0.5764 0.0000 ( 16122 PWs)   bands (ev):

   -31.3763 -31.3190 -31.2860 -31.2531 -31.2525 -31.2448 -31.2236 -31.2234
   -31.1814 -31.1293 -12.1962 -10.6159  -5.7642  -4.4145  -4.2766  -1.2075
    -0.3505   0.7270   2.2614

          k = 0.2496 0.4323 0.0000 ( 16160 PWs)   bands (ev):

   -31.3768 -31.3056 -31.2941 -31.2780 -31.2492 -31.2391 -31.2186 -31.2080
   -31.1884 -31.1316 -12.3004 -10.3495  -5.8618  -5.3214  -3.8918  -0.7915
    -0.0583   1.0347   3.2384

     the Fermi energy is    -2.1694 ev

!    total energy              =    -951.64146207 Ry
     Harris-Foulkes estimate   =    -951.64146207 Ry
     estimated scf accuracy    <          2.8E-10 Ry

     total all-electron energy =    -25926.373644 Ry

     The total energy is the sum of the following terms:

     one-electron contribution =   -1769.15054092 Ry
     hartree contribution      =     891.45753079 Ry
     xc contribution           =     -99.45529727 Ry
     ewald contribution        =     606.48233068 Ry
     one-center paw contrib.   =    -580.97548534 Ry
     smearing contrib. (-TS)   =       0.00000000 Ry

     convergence has been achieved in  14 iterations

     negative rho (up, down):  3.606E-03 0.000E+00

     Forces acting on atoms (cartesian axes, Ry/au):

     atom    1 type  1   force =     0.00000000    0.00000000   -0.00097634
     atom    2 type  1   force =     0.00000000    0.00000000    0.00097634

     Total force =     0.001381     Total SCF correction =     0.000095


     Computing stress (Cartesian axis) and pressure


     negative rho (up, down):  3.606E-03 0.000E+00
          total   stress  (Ry/bohr**3)                   (kbar)     P=    1.35
   0.00001318  -0.00000000   0.00000000          1.94     -0.00      0.00
  -0.00000000   0.00001318   0.00000000         -0.00      1.94      0.00
   0.00000000   0.00000000   0.00000125          0.00      0.00      0.18


     number of scf cycles    =   4
     number of bfgs steps    =   3

     enthalpy old            =    -951.6413806094 Ry
     enthalpy new            =    -951.6414620665 Ry

     CASE: enthalpy_new < enthalpy_old

     new trust radius        =       0.0153640989 bohr
     new conv_thr            =       0.0000000010 Ry

     new unit-cell volume =   2994.26455 a.u.^3 (   443.70422 Ang^3 )
     density =      0.91136 g/cm^3

CELL_PARAMETERS (alat=  7.78567167)
   1.003052400  -0.000000000   0.000000000
  -0.501526200   0.868668860   0.000000000
   0.000000000   0.000000000   7.281553398

ATOMIC_POSITIONS (crystal)
Sb       0.333333333   0.666666667   0.000559462
Sb       0.666666667   0.333333333   0.054440538



     Writing output data file antimonene_B.save/
     NEW-OLD atomic charge density approx. for the potential

     Check: negative core charge=   -0.000001

     negative rho (up, down):  3.690E-03 0.000E+00
     extrapolated charge   30.08417, renormalised to   30.00000

     total cpu time spent up to now is      820.7 secs

     Self-consistent Calculation

     iteration #  1     ecut=    47.00 Ry     beta= 0.30
     Davidson diagonalization with overlap
     c_bands:  1 eigenvalues not converged
     ethr =  1.00E-06,  avg # of iterations = 18.5

     negative rho (up, down):  3.570E-03 0.000E+00

     total cpu time spent up to now is      844.3 secs

     total energy              =    -951.63605361 Ry
     Harris-Foulkes estimate   =    -946.84403442 Ry
     estimated scf accuracy    <       0.00474917 Ry

     iteration #  2     ecut=    47.00 Ry     beta= 0.30
     Davidson diagonalization with overlap
     ethr =  1.58E-05,  avg # of iterations =  6.2

     negative rho (up, down):  3.595E-03 0.000E+00

     total cpu time spent up to now is      860.9 secs

     total energy              =    -951.64167002 Ry
     Harris-Foulkes estimate   =    -951.64223854 Ry
     estimated scf accuracy    <       0.00183243 Ry

     iteration #  3     ecut=    47.00 Ry     beta= 0.30
     Davidson diagonalization with overlap
     ethr =  6.11E-06,  avg # of iterations =  1.8

     negative rho (up, down):  3.625E-03 0.000E+00

     total cpu time spent up to now is      871.5 secs

     total energy              =    -951.64144922 Ry
     Harris-Foulkes estimate   =    -951.64173707 Ry
     estimated scf accuracy    <       0.00071764 Ry

     iteration #  4     ecut=    47.00 Ry     beta= 0.30
     Davidson diagonalization with overlap
     ethr =  2.39E-06,  avg # of iterations =  4.5

     negative rho (up, down):  3.628E-03 0.000E+00

     total cpu time spent up to now is      883.3 secs

     total energy              =    -951.64154620 Ry
     Harris-Foulkes estimate   =    -951.64152997 Ry
     estimated scf accuracy    <       0.00009044 Ry

     iteration #  5     ecut=    47.00 Ry     beta= 0.30
     Davidson diagonalization with overlap
     ethr =  3.01E-07,  avg # of iterations =  1.0

     negative rho (up, down):  3.644E-03 0.000E+00

     total cpu time spent up to now is      894.1 secs

     total energy              =    -951.64152541 Ry
     Harris-Foulkes estimate   =    -951.64154802 Ry
     estimated scf accuracy    <       0.00012597 Ry

     iteration #  6     ecut=    47.00 Ry     beta= 0.30
     Davidson diagonalization with overlap
     ethr =  3.01E-07,  avg # of iterations =  2.0

     negative rho (up, down):  3.662E-03 0.000E+00

     total cpu time spent up to now is      906.6 secs

     total energy              =    -951.64151888 Ry
     Harris-Foulkes estimate   =    -951.64152972 Ry
     estimated scf accuracy    <       0.00006355 Ry

     iteration #  7     ecut=    47.00 Ry     beta= 0.30
     Davidson diagonalization with overlap
     ethr =  2.12E-07,  avg # of iterations =  2.0

     negative rho (up, down):  3.665E-03 0.000E+00

     total cpu time spent up to now is      920.9 secs

     total energy              =    -951.64152510 Ry
     Harris-Foulkes estimate   =    -951.64152491 Ry
     estimated scf accuracy    <       0.00001609 Ry

     iteration #  8     ecut=    47.00 Ry     beta= 0.30
     Davidson diagonalization with overlap
     ethr =  5.36E-08,  avg # of iterations =  1.0

     negative rho (up, down):  3.668E-03 0.000E+00

     total cpu time spent up to now is      933.0 secs

     total energy              =    -951.64152517 Ry
     Harris-Foulkes estimate   =    -951.64152525 Ry
     estimated scf accuracy    <       0.00001248 Ry

     iteration #  9     ecut=    47.00 Ry     beta= 0.30
     Davidson diagonalization with overlap
     ethr =  4.16E-08,  avg # of iterations =  1.0

     negative rho (up, down):  3.680E-03 0.000E+00

     total cpu time spent up to now is      944.8 secs

     total energy              =    -951.64152584 Ry
     Harris-Foulkes estimate   =    -951.64152550 Ry
     estimated scf accuracy    <       0.00000639 Ry

     iteration # 10     ecut=    47.00 Ry     beta= 0.30
     Davidson diagonalization with overlap
     ethr =  2.13E-08,  avg # of iterations =  3.2

     negative rho (up, down):  3.679E-03 0.000E+00

     total cpu time spent up to now is      957.0 secs

     total energy              =    -951.64152826 Ry
     Harris-Foulkes estimate   =    -951.64152828 Ry
     estimated scf accuracy    <       0.00000019 Ry

     iteration # 11     ecut=    47.00 Ry     beta= 0.30
     Davidson diagonalization with overlap
     ethr =  6.40E-10,  avg # of iterations =  2.0

     negative rho (up, down):  3.679E-03 0.000E+00

     total cpu time spent up to now is      967.8 secs

     total energy              =    -951.64152830 Ry
     Harris-Foulkes estimate   =    -951.64152829 Ry
     estimated scf accuracy    <       0.00000002 Ry

     iteration # 12     ecut=    47.00 Ry     beta= 0.30
     Davidson diagonalization with overlap
     ethr =  7.80E-11,  avg # of iterations =  1.8

     negative rho (up, down):  3.679E-03 0.000E+00

     total cpu time spent up to now is      978.3 secs

     total energy              =    -951.64152830 Ry
     Harris-Foulkes estimate   =    -951.64152830 Ry
     estimated scf accuracy    <       0.00000001 Ry

     iteration # 13     ecut=    47.00 Ry     beta= 0.30
     Davidson diagonalization with overlap
     ethr =  3.64E-11,  avg # of iterations =  2.0

     negative rho (up, down):  3.679E-03 0.000E+00

     total cpu time spent up to now is      992.8 secs

     total energy              =    -951.64152830 Ry
     Harris-Foulkes estimate   =    -951.64152830 Ry
     estimated scf accuracy    <          4.3E-09 Ry

     iteration # 14     ecut=    47.00 Ry     beta= 0.30
     Davidson diagonalization with overlap
     ethr =  1.43E-11,  avg # of iterations =  2.0

     negative rho (up, down):  3.679E-03 0.000E+00

     total cpu time spent up to now is     1003.4 secs

     End of self-consistent calculation

          k = 0.0000 0.0000 0.0000 ( 16293 PWs)   bands (ev):

   -31.4002 -31.4002 -31.3266 -31.3266 -31.2897 -31.2193 -31.2193 -31.1912
   -31.1400 -31.1400 -14.1257  -9.1058  -3.3894  -2.9214  -2.9214  -1.3578
     1.1707   1.2280   1.5240

          k = 0.0000 0.2878 0.0000 ( 16215 PWs)   bands (ev):

   -31.3968 -31.3700 -31.3234 -31.3082 -31.2796 -31.2329 -31.2225 -31.1999
   -31.1729 -31.1419 -13.4819  -9.3232  -5.4759  -3.8559  -3.3558  -1.4881
     0.5927   1.8231   1.9684

          k =-0.0000-0.5756 0.0000 ( 16122 PWs)   bands (ev):

   -31.3931 -31.3351 -31.3019 -31.2683 -31.2681 -31.2597 -31.2394 -31.2382
   -31.1956 -31.1439 -12.2228 -10.6385  -5.7691  -4.4549  -4.2757  -1.2355
    -0.3352   0.7245   2.2624

          k = 0.2492 0.4317 0.0000 ( 16160 PWs)   bands (ev):

   -31.3936 -31.3216 -31.3097 -31.2939 -31.2644 -31.2544 -31.2346 -31.2225
   -31.2025 -31.1462 -12.3262 -10.3730  -5.8895  -5.3292  -3.8967  -0.7843
    -0.0513   1.0201   3.2082

     the Fermi energy is    -2.1975 ev

!    total energy              =    -951.64152830 Ry
     Harris-Foulkes estimate   =    -951.64152830 Ry
     estimated scf accuracy    <          7.3E-10 Ry

     total all-electron energy =    -25926.373711 Ry

     The total energy is the sum of the following terms:

     one-electron contribution =   -1766.40173175 Ry
     hartree contribution      =     890.06603330 Ry
     xc contribution           =     -99.45675578 Ry
     ewald contribution        =     605.12686977 Ry
     one-center paw contrib.   =    -580.97594383 Ry
     smearing contrib. (-TS)   =       0.00000000 Ry

     convergence has been achieved in  14 iterations

     negative rho (up, down):  3.679E-03 0.000E+00

     Forces acting on atoms (cartesian axes, Ry/au):

     atom    1 type  1   force =     0.00000000    0.00000000   -0.00355517
     atom    2 type  1   force =     0.00000000    0.00000000    0.00355517

     Total force =     0.005028     Total SCF correction =     0.000149


     Computing stress (Cartesian axis) and pressure


     negative rho (up, down):  3.679E-03 0.000E+00
          total   stress  (Ry/bohr**3)                   (kbar)     P=    1.39
   0.00001247  -0.00000000  -0.00000000          1.83     -0.00     -0.00
  -0.00000000   0.00001247  -0.00000000         -0.00      1.83     -0.00
   0.00000000   0.00000000   0.00000340          0.00      0.00      0.50


     number of scf cycles    =   5
     number of bfgs steps    =   4

     enthalpy old            =    -951.6414620665 Ry
     enthalpy new            =    -951.6415283012 Ry

     CASE: enthalpy_new < enthalpy_old

     new trust radius        =       0.0197257751 bohr
     new conv_thr            =       0.0000000036 Ry

     new unit-cell volume =   3005.06819 a.u.^3 (   445.30516 Ang^3 )
     density =      0.90808 g/cm^3

CELL_PARAMETERS (alat=  7.78567167)
   1.004860334  -0.000000000   0.000000000
  -0.502430167   0.870234577   0.000000000
   0.000000000   0.000000000   7.281553398

ATOMIC_POSITIONS (crystal)
Sb       0.333333333   0.666666667   0.000670153
Sb       0.666666667   0.333333333   0.054329847



     Writing output data file antimonene_B.save/
     NEW-OLD atomic charge density approx. for the potential

     Check: negative core charge=   -0.000001

     negative rho (up, down):  3.778E-03 0.000E+00
     extrapolated charge   30.10785, renormalised to   30.00000

     total cpu time spent up to now is     1055.8 secs

     Self-consistent Calculation

     iteration #  1     ecut=    47.00 Ry     beta= 0.30
     Davidson diagonalization with overlap
     c_bands:  1 eigenvalues not converged
     c_bands:  1 eigenvalues not converged
     ethr =  1.00E-06,  avg # of iterations = 16.5

     negative rho (up, down):  3.597E-03 0.000E+00

     total cpu time spent up to now is     1077.4 secs

     total energy              =    -951.63237274 Ry
     Harris-Foulkes estimate   =    -945.51573200 Ry
     estimated scf accuracy    <       0.00793571 Ry

     iteration #  2     ecut=    47.00 Ry     beta= 0.30
     Davidson diagonalization with overlap
     ethr =  2.65E-05,  avg # of iterations =  6.2

     negative rho (up, down):  3.632E-03 0.000E+00

     total cpu time spent up to now is     1094.0 secs

     total energy              =    -951.64186251 Ry
     Harris-Foulkes estimate   =    -951.64281031 Ry
     estimated scf accuracy    <       0.00308382 Ry

     iteration #  3     ecut=    47.00 Ry     beta= 0.30
     Davidson diagonalization with overlap
     ethr =  1.03E-05,  avg # of iterations =  3.8

     negative rho (up, down):  3.678E-03 0.000E+00

     total cpu time spent up to now is     1104.4 secs

     total energy              =    -951.64147928 Ry
     Harris-Foulkes estimate   =    -951.64197419 Ry
     estimated scf accuracy    <       0.00120011 Ry

     iteration #  4     ecut=    47.00 Ry     beta= 0.30
     Davidson diagonalization with overlap
     ethr =  4.00E-06,  avg # of iterations =  5.8

     negative rho (up, down):  3.685E-03 0.000E+00

     total cpu time spent up to now is     1117.6 secs

     total energy              =    -951.64164885 Ry
     Harris-Foulkes estimate   =    -951.64161403 Ry
     estimated scf accuracy    <       0.00014544 Ry

     iteration #  5     ecut=    47.00 Ry     beta= 0.30
     Davidson diagonalization with overlap
     ethr =  4.85E-07,  avg # of iterations =  1.0

     negative rho (up, down):  3.706E-03 0.000E+00

     total cpu time spent up to now is     1127.1 secs

     total energy              =    -951.64161276 Ry
     Harris-Foulkes estimate   =    -951.64165318 Ry
     estimated scf accuracy    <       0.00022824 Ry

     iteration #  6     ecut=    47.00 Ry     beta= 0.30
     Davidson diagonalization with overlap
     ethr =  4.85E-07,  avg # of iterations =  1.2

     negative rho (up, down):  3.736E-03 0.000E+00

     total cpu time spent up to now is     1137.5 secs

     total energy              =    -951.64158986 Ry
     Harris-Foulkes estimate   =    -951.64161765 Ry
     estimated scf accuracy    <       0.00012765 Ry

     iteration #  7     ecut=    47.00 Ry     beta= 0.30
     Davidson diagonalization with overlap
     ethr =  4.26E-07,  avg # of iterations =  3.0

     negative rho (up, down):  3.737E-03 0.000E+00

     total cpu time spent up to now is     1149.2 secs

     total energy              =    -951.64160162 Ry
     Harris-Foulkes estimate   =    -951.64160135 Ry
     estimated scf accuracy    <       0.00002998 Ry

     iteration #  8     ecut=    47.00 Ry     beta= 0.30
     Davidson diagonalization with overlap
     ethr =  9.99E-08,  avg # of iterations =  1.0

     negative rho (up, down):  3.736E-03 0.000E+00

     total cpu time spent up to now is     1161.6 secs

     total energy              =    -951.64160201 Ry
     Harris-Foulkes estimate   =    -951.64160174 Ry
     estimated scf accuracy    <       0.00002892 Ry

     iteration #  9     ecut=    47.00 Ry     beta= 0.30
     Davidson diagonalization with overlap
     ethr =  9.64E-08,  avg # of iterations =  1.0

     negative rho (up, down):  3.736E-03 0.000E+00

     total cpu time spent up to now is     1173.6 secs

     total energy              =    -951.64160210 Ry
     Harris-Foulkes estimate   =    -951.64160203 Ry
     estimated scf accuracy    <       0.00003086 Ry

     iteration # 10     ecut=    47.00 Ry     beta= 0.30
     Davidson diagonalization with overlap
     ethr =  9.64E-08,  avg # of iterations =  1.0

     negative rho (up, down):  3.763E-03 0.000E+00

     total cpu time spent up to now is     1184.2 secs

     total energy              =    -951.64159357 Ry
     Harris-Foulkes estimate   =    -951.64160210 Ry
     estimated scf accuracy    <       0.00003156 Ry

     iteration # 11     ecut=    47.00 Ry     beta= 0.30
     Davidson diagonalization with overlap
     ethr =  9.64E-08,  avg # of iterations =  3.0

     negative rho (up, down):  3.768E-03 0.000E+00

     total cpu time spent up to now is     1195.7 secs

     total energy              =    -951.64160449 Ry
     Harris-Foulkes estimate   =    -951.64160291 Ry
     estimated scf accuracy    <       0.00000055 Ry

     iteration # 12     ecut=    47.00 Ry     beta= 0.30
     Davidson diagonalization with overlap
     ethr =  1.84E-09,  avg # of iterations =  3.0

     negative rho (up, down):  3.770E-03 0.000E+00

     total cpu time spent up to now is     1208.5 secs

     total energy              =    -951.64160500 Ry
     Harris-Foulkes estimate   =    -951.64160474 Ry
     estimated scf accuracy    <       0.00000007 Ry

     iteration # 13     ecut=    47.00 Ry     beta= 0.30
     Davidson diagonalization with overlap
     ethr =  2.25E-10,  avg # of iterations =  3.0

     negative rho (up, down):  3.771E-03 0.000E+00

     total cpu time spent up to now is     1221.8 secs

     total energy              =    -951.64160531 Ry
     Harris-Foulkes estimate   =    -951.64160506 Ry
     estimated scf accuracy    <       0.00000049 Ry

     iteration # 14     ecut=    47.00 Ry     beta= 0.30
     Davidson diagonalization with overlap
     ethr =  2.25E-10,  avg # of iterations =  3.2

     negative rho (up, down):  3.771E-03 0.000E+00

     total cpu time spent up to now is     1234.5 secs

     total energy              =    -951.64160511 Ry
     Harris-Foulkes estimate   =    -951.64160544 Ry
     estimated scf accuracy    <       0.00000246 Ry

     iteration # 15     ecut=    47.00 Ry     beta= 0.30
     Davidson diagonalization with overlap
     ethr =  2.25E-10,  avg # of iterations =  3.0

     negative rho (up, down):  3.770E-03 0.000E+00

     total cpu time spent up to now is     1246.7 secs

     total energy              =    -951.64160506 Ry
     Harris-Foulkes estimate   =    -951.64160515 Ry
     estimated scf accuracy    <       0.00000148 Ry

     iteration # 16     ecut=    47.00 Ry     beta= 0.30
     Davidson diagonalization with overlap
     ethr =  2.25E-10,  avg # of iterations =  2.5

     negative rho (up, down):  3.772E-03 0.000E+00

     total cpu time spent up to now is     1257.8 secs

     total energy              =    -951.64160515 Ry
     Harris-Foulkes estimate   =    -951.64160508 Ry
     estimated scf accuracy    <       0.00000067 Ry

     iteration # 17     ecut=    47.00 Ry     beta= 0.30
     Davidson diagonalization with overlap
     ethr =  2.25E-10,  avg # of iterations =  2.0

     negative rho (up, down):  3.767E-03 0.000E+00

     total cpu time spent up to now is     1268.2 secs

     total energy              =    -951.64160468 Ry
     Harris-Foulkes estimate   =    -951.64160516 Ry
     estimated scf accuracy    <       0.00000100 Ry

     iteration # 18     ecut=    47.00 Ry     beta= 0.30
     Davidson diagonalization with overlap
     ethr =  2.25E-10,  avg # of iterations =  3.0

     negative rho (up, down):  3.768E-03 0.000E+00

     total cpu time spent up to now is     1281.9 secs

     total energy              =    -951.64160484 Ry
     Harris-Foulkes estimate   =    -951.64160488 Ry
     estimated scf accuracy    <       0.00000002 Ry

     iteration # 19     ecut=    47.00 Ry     beta= 0.30
     Davidson diagonalization with overlap
     ethr =  6.01E-11,  avg # of iterations =  3.0

     negative rho (up, down):  3.768E-03 0.000E+00

     total cpu time spent up to now is     1292.8 secs

     End of self-consistent calculation

          k = 0.0000 0.0000 0.0000 ( 16293 PWs)   bands (ev):

   -31.4145 -31.4145 -31.3409 -31.3409 -31.3032 -31.2332 -31.2332 -31.2053
   -31.1542 -31.1542 -14.1328  -9.1016  -3.3785  -2.9617  -2.9617  -1.4065
    -0.1200  -0.1200   1.1625

          k = 0.0000 0.2873 0.0000 ( 16215 PWs)   bands (ev):

   -31.4111 -31.3843 -31.3375 -31.3225 -31.2934 -31.2469 -31.2364 -31.2143
   -31.1867 -31.1561 -13.4920  -9.3325  -5.4905  -3.8899  -3.3549  -1.5037
     0.5709   0.6240   1.8140

          k =-0.0000-0.5746 0.0000 ( 16122 PWs)   bands (ev):

   -31.4075 -31.3494 -31.3161 -31.2825 -31.2823 -31.2736 -31.2542 -31.2517
   -31.2092 -31.1581 -12.2395 -10.6554  -5.7707  -4.4857  -4.2750  -1.2605
    -0.3270   0.7137   2.2610

          k = 0.2488 0.4309 0.0000 ( 16160 PWs)   bands (ev):

   -31.4081 -31.3359 -31.3238 -31.3081 -31.2784 -31.2685 -31.2494 -31.2363
   -31.2159 -31.1604 -12.3415 -10.3926  -5.9062  -5.3326  -3.9023  -0.7816
    -0.0513   0.9973   3.1786

     the Fermi energy is    -2.2247 ev

!    total energy              =    -951.64160486 Ry
     Harris-Foulkes estimate   =    -951.64160485 Ry
     estimated scf accuracy    <          1.4E-09 Ry

     total all-electron energy =    -25926.373787 Ry

     The total energy is the sum of the following terms:

     one-electron contribution =   -1762.03296222 Ry
     hartree contribution      =     887.86621084 Ry
     xc contribution           =     -99.45597211 Ry
     ewald contribution        =     602.95694955 Ry
     one-center paw contrib.   =    -580.97583092 Ry
     smearing contrib. (-TS)   =       0.00000000 Ry

     convergence has been achieved in  19 iterations

     negative rho (up, down):  3.768E-03 0.000E+00

     Forces acting on atoms (cartesian axes, Ry/au):

     atom    1 type  1   force =     0.00000000    0.00000000   -0.00488798
     atom    2 type  1   force =     0.00000000    0.00000000    0.00488798

     Total force =     0.006913     Total SCF correction =     0.000118


     Computing stress (Cartesian axis) and pressure


     negative rho (up, down):  3.768E-03 0.000E+00
          total   stress  (Ry/bohr**3)                   (kbar)     P=    1.33
   0.00001121  -0.00000000   0.00000000          1.65     -0.00      0.00
  -0.00000000   0.00001121   0.00000000         -0.00      1.65      0.00
  -0.00000000  -0.00000000   0.00000476         -0.00     -0.00      0.70


     number of scf cycles    =   6
     number of bfgs steps    =   5

     enthalpy old            =    -951.6415283012 Ry
     enthalpy new            =    -951.6416048599 Ry

     CASE: enthalpy_new < enthalpy_old

     new trust radius        =       0.0216983526 bohr
     new conv_thr            =       0.0000000049 Ry

     new unit-cell volume =   3016.97467 a.u.^3 (   447.06952 Ang^3 )
     density =      0.90450 g/cm^3

CELL_PARAMETERS (alat=  7.78567167)
   1.006849062  -0.000000000   0.000000000
  -0.503424531   0.871956865   0.000000000
   0.000000000   0.000000000   7.281553398

ATOMIC_POSITIONS (crystal)
Sb       0.333333333   0.666666667   0.000735997
Sb       0.666666667   0.333333333   0.054264003



     Writing output data file antimonene_B.save/
     NEW-OLD atomic charge density approx. for the potential

     Check: negative core charge=   -0.000001

     negative rho (up, down):  3.870E-03 0.000E+00
     extrapolated charge   30.11839, renormalised to   30.00000

     total cpu time spent up to now is     1341.3 secs

     Self-consistent Calculation

     iteration #  1     ecut=    47.00 Ry     beta= 0.30
     Davidson diagonalization with overlap
     c_bands:  1 eigenvalues not converged
     ethr =  1.00E-06,  avg # of iterations = 18.0

     negative rho (up, down):  1.413E-03 0.000E+00

     total cpu time spent up to now is     1363.2 secs

     total energy              =    -951.56937732 Ry
     Harris-Foulkes estimate   =    -944.94276445 Ry
     estimated scf accuracy    <       0.06313906 Ry

     iteration #  2     ecut=    47.00 Ry     beta= 0.30
     Davidson diagonalization with overlap
     ethr =  2.10E-04,  avg # of iterations =  6.0

     negative rho (up, down):  1.554E-03 0.000E+00

     total cpu time spent up to now is     1375.2 secs

     total energy              =    -951.64400476 Ry
     Harris-Foulkes estimate   =    -951.64876164 Ry
     estimated scf accuracy    <       0.01449376 Ry

     iteration #  3     ecut=    47.00 Ry     beta= 0.30
     Davidson diagonalization with overlap
     ethr =  4.83E-05,  avg # of iterations =  2.5

     negative rho (up, down):  1.752E-03 0.000E+00

     total cpu time spent up to now is     1385.1 secs

     total energy              =    -951.64216973 Ry
     Harris-Foulkes estimate   =    -951.64460365 Ry
     estimated scf accuracy    <       0.00597666 Ry

     iteration #  4     ecut=    47.00 Ry     beta= 0.30
     Davidson diagonalization with overlap
     ethr =  1.99E-05,  avg # of iterations =  7.8

     negative rho (up, down):  1.808E-03 0.000E+00

     total cpu time spent up to now is     1398.3 secs

     total energy              =    -951.64234386 Ry
     Harris-Foulkes estimate   =    -951.64250583 Ry
     estimated scf accuracy    <       0.00168979 Ry

     iteration #  5     ecut=    47.00 Ry     beta= 0.30
     Davidson diagonalization with overlap
     ethr =  5.63E-06,  avg # of iterations =  1.5

     negative rho (up, down):  2.013E-03 0.000E+00

     total cpu time spent up to now is     1409.0 secs

     total energy              =    -951.64189491 Ry
     Harris-Foulkes estimate   =    -951.64234665 Ry
     estimated scf accuracy    <       0.00144711 Ry

     iteration #  6     ecut=    47.00 Ry     beta= 0.30
     Davidson diagonalization with overlap
     ethr =  4.82E-06,  avg # of iterations =  6.0

     negative rho (up, down):  2.055E-03 0.000E+00

     total cpu time spent up to now is     1421.4 secs

     total energy              =    -951.64187513 Ry
     Harris-Foulkes estimate   =    -951.64191887 Ry
     estimated scf accuracy    <       0.00063690 Ry

     iteration #  7     ecut=    47.00 Ry     beta= 0.30
     Davidson diagonalization with overlap
     ethr =  2.12E-06,  avg # of iterations =  1.0

     negative rho (up, down):  2.064E-03 0.000E+00

     total cpu time spent up to now is     1431.7 secs

     total energy              =    -951.64187133 Ry
     Harris-Foulkes estimate   =    -951.64187801 Ry
     estimated scf accuracy    <       0.00052923 Ry

     iteration #  8     ecut=    47.00 Ry     beta= 0.30
     Davidson diagonalization with overlap
     ethr =  1.76E-06,  avg # of iterations =  1.0

     negative rho (up, down):  2.106E-03 0.000E+00

     total cpu time spent up to now is     1442.2 secs

     total energy              =    -951.64184291 Ry
     Harris-Foulkes estimate   =    -951.64187182 Ry
     estimated scf accuracy    <       0.00050447 Ry

     iteration #  9     ecut=    47.00 Ry     beta= 0.30
     Davidson diagonalization with overlap
     ethr =  1.68E-06,  avg # of iterations =  2.0

     negative rho (up, down):  2.167E-03 0.000E+00

     total cpu time spent up to now is     1453.4 secs

     total energy              =    -951.64181003 Ry
     Harris-Foulkes estimate   =    -951.64184354 Ry
     estimated scf accuracy    <       0.00042816 Ry

     iteration # 10     ecut=    47.00 Ry     beta= 0.30
     Davidson diagonalization with overlap
     ethr =  1.43E-06,  avg # of iterations =  1.5

     negative rho (up, down):  3.863E-03 0.000E+00

     total cpu time spent up to now is     1464.7 secs

     total energy              =    -951.64164216 Ry
     Harris-Foulkes estimate   =    -951.64181073 Ry
     estimated scf accuracy    <       0.00034063 Ry

     iteration # 11     ecut=    47.00 Ry     beta= 0.30
     Davidson diagonalization with overlap
     ethr =  1.14E-06,  avg # of iterations =  6.8

     negative rho (up, down):  3.860E-03 0.000E+00

     total cpu time spent up to now is     1478.4 secs

     total energy              =    -951.64168930 Ry
     Harris-Foulkes estimate   =    -951.64168940 Ry
     estimated scf accuracy    <       0.00000062 Ry

     iteration # 12     ecut=    47.00 Ry     beta= 0.30
     Davidson diagonalization with overlap
     ethr =  2.07E-09,  avg # of iterations =  3.0

     negative rho (up, down):  3.858E-03 0.000E+00

     total cpu time spent up to now is     1491.2 secs

     total energy              =    -951.64168983 Ry
     Harris-Foulkes estimate   =    -951.64168972 Ry
     estimated scf accuracy    <       0.00000061 Ry

     iteration # 13     ecut=    47.00 Ry     beta= 0.30
     Davidson diagonalization with overlap
     ethr =  2.05E-09,  avg # of iterations =  2.0

     negative rho (up, down):  3.862E-03 0.000E+00

     total cpu time spent up to now is     1503.1 secs

     total energy              =    -951.64168950 Ry
     Harris-Foulkes estimate   =    -951.64168992 Ry
     estimated scf accuracy    <       0.00000085 Ry

     iteration # 14     ecut=    47.00 Ry     beta= 0.30
     Davidson diagonalization with overlap
     ethr =  2.05E-09,  avg # of iterations =  2.0

     negative rho (up, down):  3.862E-03 0.000E+00

     total cpu time spent up to now is     1514.3 secs

     total energy              =    -951.64168955 Ry
     Harris-Foulkes estimate   =    -951.64168958 Ry
     estimated scf accuracy    <       0.00000012 Ry

     iteration # 15     ecut=    47.00 Ry     beta= 0.30
     Davidson diagonalization with overlap
     ethr =  4.13E-10,  avg # of iterations =  1.0

     negative rho (up, down):  3.862E-03 0.000E+00

     total cpu time spent up to now is     1524.3 secs

     total energy              =    -951.64168955 Ry
     Harris-Foulkes estimate   =    -951.64168955 Ry
     estimated scf accuracy    <       0.00000007 Ry

     iteration # 16     ecut=    47.00 Ry     beta= 0.30
     Davidson diagonalization with overlap
     ethr =  2.28E-10,  avg # of iterations =  1.0

     negative rho (up, down):  3.861E-03 0.000E+00

     total cpu time spent up to now is     1534.5 secs

     total energy              =    -951.64168951 Ry
     Harris-Foulkes estimate   =    -951.64168955 Ry
     estimated scf accuracy    <       0.00000006 Ry

     iteration # 17     ecut=    47.00 Ry     beta= 0.30
     Davidson diagonalization with overlap
     ethr =  2.02E-10,  avg # of iterations =  2.2

     negative rho (up, down):  3.861E-03 0.000E+00

     total cpu time spent up to now is     1544.0 secs

     End of self-consistent calculation

          k = 0.0000 0.0000 0.0000 ( 16293 PWs)   bands (ev):

   -31.4252 -31.4252 -31.3521 -31.3521 -31.3139 -31.2448 -31.2448 -31.2171
   -31.1662 -31.1662 -14.1282  -9.1006  -3.3705  -2.9935  -2.9935  -1.4500
    -0.1473  -0.1473   1.1544

          k = 0.0000 0.2867 0.0000 ( 16215 PWs)   bands (ev):

   -31.4219 -31.3952 -31.3486 -31.3337 -31.3043 -31.2585 -31.2479 -31.2263
   -31.1984 -31.1682 -13.4911  -9.3427  -5.4965  -3.9145  -3.3560  -1.5178
     0.5477   0.6006   1.8044

          k =-0.0000-0.5734 0.0000 ( 16122 PWs)   bands (ev):

   -31.4183 -31.3604 -31.3273 -31.2940 -31.2936 -31.2848 -31.2662 -31.2628
   -31.2206 -31.1702 -12.2470 -10.6661  -5.7695  -4.5066  -4.2739  -1.2809
    -0.3241   0.6981   2.2581

          k = 0.2483 0.4301 0.0000 ( 16160 PWs)   bands (ev):

   -31.4190 -31.3471 -31.3348 -31.3194 -31.2897 -31.2799 -31.2613 -31.2476
   -31.2271 -31.1724 -12.3475 -10.4074  -5.9132  -5.3319  -3.9075  -0.7820
    -0.0561   0.9706   3.1517

     the Fermi energy is    -2.2491 ev

!    total energy              =    -951.64168952 Ry
     Harris-Foulkes estimate   =    -951.64168952 Ry
     estimated scf accuracy    <          1.6E-09 Ry

     total all-electron energy =    -25926.373872 Ry

     The total energy is the sum of the following terms:

     one-electron contribution =   -1756.75846150 Ry
     hartree contribution      =     885.21538288 Ry
     xc contribution           =     -99.45361055 Ry
     ewald contribution        =     600.33055687 Ry
     one-center paw contrib.   =    -580.97555722 Ry
     smearing contrib. (-TS)   =       0.00000000 Ry

     convergence has been achieved in  17 iterations

     negative rho (up, down):  3.861E-03 0.000E+00

     Forces acting on atoms (cartesian axes, Ry/au):

     atom    1 type  1   force =     0.00000000    0.00000000   -0.00533722
     atom    2 type  1   force =     0.00000000    0.00000000    0.00533722

     Total force =     0.007548     Total SCF correction =     0.000096


     Computing stress (Cartesian axis) and pressure


     negative rho (up, down):  3.861E-03 0.000E+00
          total   stress  (Ry/bohr**3)                   (kbar)     P=    1.10
   0.00000891  -0.00000000   0.00000000          1.31     -0.00      0.00
  -0.00000000   0.00000891   0.00000000         -0.00      1.31      0.00
   0.00000000   0.00000000   0.00000467          0.00      0.00      0.69


     number of scf cycles    =   7
     number of bfgs steps    =   6

     enthalpy old            =    -951.6416048599 Ry
     enthalpy new            =    -951.6416895175 Ry

     CASE: enthalpy_new < enthalpy_old

     new trust radius        =       0.0325475289 bohr
     new conv_thr            =       0.0000000053 Ry

     new unit-cell volume =   3034.87854 a.u.^3 (   449.72259 Ang^3 )
     density =      0.89916 g/cm^3

CELL_PARAMETERS (alat=  7.78567167)
   1.009832153  -0.000000000   0.000000000
  -0.504916077   0.874540298   0.000000000
   0.000000000   0.000000000   7.281553398

ATOMIC_POSITIONS (crystal)
Sb       0.333333333   0.666666667   0.000756450
Sb       0.666666667   0.333333333   0.054243550



     Writing output data file antimonene_B.save/
     NEW-OLD atomic charge density approx. for the potential

     Check: negative core charge=   -0.000001

     negative rho (up, down):  4.002E-03 0.000E+00
     extrapolated charge   30.17697, renormalised to   30.00000

     total cpu time spent up to now is     1593.4 secs

     Self-consistent Calculation

     iteration #  1     ecut=    47.00 Ry     beta= 0.30
     Davidson diagonalization with overlap
     c_bands:  2 eigenvalues not converged
     ethr =  1.00E-06,  avg # of iterations = 16.8

     negative rho (up, down):  6.224E-04 0.000E+00

     total cpu time spent up to now is     1620.8 secs

     total energy              =    -950.09926991 Ry
     Harris-Foulkes estimate   =    -941.75695654 Ry
     estimated scf accuracy    <       2.46955245 Ry

     iteration #  2     ecut=    47.00 Ry     beta= 0.30
     Davidson diagonalization with overlap
     ethr =  8.23E-03,  avg # of iterations =  5.2

     negative rho (up, down):  7.958E-04 0.000E+00

     total cpu time spent up to now is     1633.9 secs

     total energy              =    -951.76426003 Ry
     Harris-Foulkes estimate   =    -951.87944630 Ry
     estimated scf accuracy    <       0.30647689 Ry

     iteration #  3     ecut=    47.00 Ry     beta= 0.30
     Davidson diagonalization with overlap
     ethr =  1.02E-03,  avg # of iterations =  2.0

     negative rho (up, down):  1.050E-03 0.000E+00

     total cpu time spent up to now is     1644.1 secs

     total energy              =    -951.69169969 Ry
     Harris-Foulkes estimate   =    -951.76937432 Ry
     estimated scf accuracy    <       0.15802664 Ry

     iteration #  4     ecut=    47.00 Ry     beta= 0.30
     Davidson diagonalization with overlap
     ethr =  5.27E-04,  avg # of iterations =  2.2

     negative rho (up, down):  1.117E-03 0.000E+00

     total cpu time spent up to now is     1654.1 secs

     total energy              =    -951.68355133 Ry
     Harris-Foulkes estimate   =    -951.69503461 Ry
     estimated scf accuracy    <       0.06321182 Ry

     iteration #  5     ecut=    47.00 Ry     beta= 0.30
     Davidson diagonalization with overlap
     ethr =  2.11E-04,  avg # of iterations =  1.0

     negative rho (up, down):  1.318E-03 0.000E+00

     total cpu time spent up to now is     1664.0 secs

     total energy              =    -951.66095766 Ry
     Harris-Foulkes estimate   =    -951.68371317 Ry
     estimated scf accuracy    <       0.05037017 Ry

     iteration #  6     ecut=    47.00 Ry     beta= 0.30
     Davidson diagonalization with overlap
     ethr =  1.68E-04,  avg # of iterations =  3.8

     negative rho (up, down):  1.338E-03 0.000E+00

     total cpu time spent up to now is     1675.2 secs

     total energy              =    -951.65915953 Ry
     Harris-Foulkes estimate   =    -951.66130409 Ry
     estimated scf accuracy    <       0.02361686 Ry

     iteration #  7     ecut=    47.00 Ry     beta= 0.30
     Davidson diagonalization with overlap
     ethr =  7.87E-05,  avg # of iterations =  1.0

     negative rho (up, down):  1.367E-03 0.000E+00

     total cpu time spent up to now is     1685.5 secs

     total energy              =    -951.65679909 Ry
     Harris-Foulkes estimate   =    -951.65917372 Ry
     estimated scf accuracy    <       0.02115185 Ry

     iteration #  8     ecut=    47.00 Ry     beta= 0.30
     Davidson diagonalization with overlap
     ethr =  7.05E-05,  avg # of iterations =  1.0

     negative rho (up, down):  1.423E-03 0.000E+00

     total cpu time spent up to now is     1696.1 secs

     total energy              =    -951.65301793 Ry
     Harris-Foulkes estimate   =    -951.65680751 Ry
     estimated scf accuracy    <       0.01835252 Ry

     iteration #  9     ecut=    47.00 Ry     beta= 0.30
     Davidson diagonalization with overlap
     ethr =  6.12E-05,  avg # of iterations =  3.0

     negative rho (up, down):  1.495E-03 0.000E+00

     total cpu time spent up to now is     1707.7 secs

     total energy              =    -951.64931710 Ry
     Harris-Foulkes estimate   =    -951.65303395 Ry
     estimated scf accuracy    <       0.01391197 Ry

     iteration # 10     ecut=    47.00 Ry     beta= 0.30
     Davidson diagonalization with overlap
     ethr =  4.64E-05,  avg # of iterations =  4.5

     negative rho (up, down):  4.040E-03 0.000E+00

     total cpu time spent up to now is     1718.8 secs

     total energy              =    -951.64133415 Ry
     Harris-Foulkes estimate   =    -951.64933647 Ry
     estimated scf accuracy    <       0.00959559 Ry

     iteration # 11     ecut=    47.00 Ry     beta= 0.30
     Davidson diagonalization with overlap
     ethr =  3.20E-05,  avg # of iterations =  9.2

     negative rho (up, down):  4.082E-03 0.000E+00

     total cpu time spent up to now is     1731.9 secs

     total energy              =    -951.64180316 Ry
     Harris-Foulkes estimate   =    -951.64180308 Ry
     estimated scf accuracy    <       0.00000476 Ry

     iteration # 12     ecut=    47.00 Ry     beta= 0.30
     Davidson diagonalization with overlap
     ethr =  1.59E-08,  avg # of iterations =  4.2

     negative rho (up, down):  4.083E-03 0.000E+00

     total cpu time spent up to now is     1744.2 secs

     total energy              =    -951.64180916 Ry
     Harris-Foulkes estimate   =    -951.64180927 Ry
     estimated scf accuracy    <       0.00000641 Ry

     iteration # 13     ecut=    47.00 Ry     beta= 0.30
     Davidson diagonalization with overlap
     ethr =  1.59E-08,  avg # of iterations =  1.0

     negative rho (up, down):  4.009E-03 0.000E+00

     total cpu time spent up to now is     1754.0 secs

     total energy              =    -951.64181066 Ry
     Harris-Foulkes estimate   =    -951.64180917 Ry
     estimated scf accuracy    <       0.00000659 Ry

     iteration # 14     ecut=    47.00 Ry     beta= 0.30
     Davidson diagonalization with overlap
     ethr =  1.59E-08,  avg # of iterations =  2.5

     negative rho (up, down):  3.954E-03 0.000E+00

     total cpu time spent up to now is     1764.9 secs

     total energy              =    -951.64180977 Ry
     Harris-Foulkes estimate   =    -951.64181173 Ry
     estimated scf accuracy    <       0.00000998 Ry

     iteration # 15     ecut=    47.00 Ry     beta= 0.30
     Davidson diagonalization with overlap
     ethr =  1.59E-08,  avg # of iterations =  2.0

     negative rho (up, down):  3.930E-03 0.000E+00

     total cpu time spent up to now is     1775.4 secs

     total energy              =    -951.64180810 Ry
     Harris-Foulkes estimate   =    -951.64180992 Ry
     estimated scf accuracy    <       0.00000783 Ry

     iteration # 16     ecut=    47.00 Ry     beta= 0.30
     Davidson diagonalization with overlap
     ethr =  1.59E-08,  avg # of iterations =  2.2

     negative rho (up, down):  3.979E-03 0.000E+00

     total cpu time spent up to now is     1786.1 secs

     total energy              =    -951.64180866 Ry
     Harris-Foulkes estimate   =    -951.64180863 Ry
     estimated scf accuracy    <       0.00000300 Ry

     iteration # 17     ecut=    47.00 Ry     beta= 0.30
     Davidson diagonalization with overlap
     ethr =  9.99E-09,  avg # of iterations =  1.5

     negative rho (up, down):  3.989E-03 0.000E+00

     total cpu time spent up to now is     1796.2 secs

     total energy              =    -951.64180876 Ry
     Harris-Foulkes estimate   =    -951.64180875 Ry
     estimated scf accuracy    <       0.00000023 Ry

     iteration # 18     ecut=    47.00 Ry     beta= 0.30
     Davidson diagonalization with overlap
     ethr =  7.70E-10,  avg # of iterations =  2.2

     negative rho (up, down):  3.991E-03 0.000E+00

     total cpu time spent up to now is     1806.8 secs

     total energy              =    -951.64180878 Ry
     Harris-Foulkes estimate   =    -951.64180879 Ry
     estimated scf accuracy    <       0.00000002 Ry

     iteration # 19     ecut=    47.00 Ry     beta= 0.30
     Davidson diagonalization with overlap
     ethr =  7.15E-11,  avg # of iterations =  2.0

     negative rho (up, down):  3.991E-03 0.000E+00

     total cpu time spent up to now is     1816.3 secs

     End of self-consistent calculation

          k = 0.0000 0.0000 0.0000 ( 16293 PWs)   bands (ev):

   -31.4363 -31.4363 -31.3646 -31.3646 -31.3264 -31.2591 -31.2591 -31.2318
   -31.1817 -31.1817 -14.1062  -9.1062  -3.3656  -3.0256  -3.0256  -1.5025
    -0.1834  -0.1834   1.1429

          k = 0.0000 0.2859 0.0000 ( 16215 PWs)   bands (ev):

   -31.4332 -31.4069 -31.3610 -31.3466 -31.3172 -31.2726 -31.2621 -31.2410
   -31.2131 -31.1836 -13.4751  -9.3597  -5.4935  -3.9356  -3.3620  -1.5362
     0.5127   0.5626   1.7901

          k =-0.0000-0.5717 0.0000 ( 16122 PWs)   bands (ev):

   -31.4297 -31.3728 -31.3400 -31.3077 -31.3070 -31.2983 -31.2803 -31.2763
   -31.2349 -31.1856 -12.2452 -10.6733  -5.7650  -4.5218  -4.2737  -1.3034
    -0.3302   0.6675   2.2507

          k = 0.2476 0.4288 0.0000 ( 16160 PWs)   bands (ev):

   -31.4304 -31.3596 -31.3474 -31.3323 -31.3032 -31.2936 -31.2756 -31.2617
   -31.2412 -31.1878 -12.3432 -10.4218  -5.9094  -5.3268  -3.9159  -0.7890
    -0.0713   0.9272   3.1963

     the Fermi energy is    -2.2132 ev

!    total energy              =    -951.64180879 Ry
     Harris-Foulkes estimate   =    -951.64180879 Ry
     estimated scf accuracy    <          3.4E-09 Ry

     total all-electron energy =    -25926.373991 Ry

     The total energy is the sum of the following terms:

     one-electron contribution =   -1748.22271382 Ry
     hartree contribution      =     880.93319329 Ry
     xc contribution           =     -99.44799050 Ry
     ewald contribution        =     596.07023980 Ry
     one-center paw contrib.   =    -580.97453756 Ry
     smearing contrib. (-TS)   =       0.00000000 Ry

     convergence has been achieved in  19 iterations

     negative rho (up, down):  3.991E-03 0.000E+00

     Forces acting on atoms (cartesian axes, Ry/au):

     atom    1 type  1   force =     0.00000000    0.00000000   -0.00416288
     atom    2 type  1   force =     0.00000000    0.00000000    0.00416288

     Total force =     0.005887     Total SCF correction =     0.000257


     Computing stress (Cartesian axis) and pressure


     negative rho (up, down):  3.991E-03 0.000E+00
          total   stress  (Ry/bohr**3)                   (kbar)     P=    0.77
   0.00000581  -0.00000000   0.00000000          0.85     -0.00      0.00
  -0.00000000   0.00000581   0.00000000         -0.00      0.85      0.00
   0.00000000   0.00000000   0.00000417          0.00      0.00      0.61


     number of scf cycles    =   8
     number of bfgs steps    =   7

     enthalpy old            =    -951.6416895175 Ry
     enthalpy new            =    -951.6418087854 Ry

     CASE: enthalpy_new < enthalpy_old

     new trust radius        =       0.0488212934 bohr
     new conv_thr            =       0.0000000042 Ry

     new unit-cell volume =   3061.83365 a.u.^3 (   453.71693 Ang^3 )
     density =      0.89125 g/cm^3

CELL_PARAMETERS (alat=  7.78567167)
   1.014306790  -0.000000000   0.000000000
  -0.507153395   0.878415448   0.000000000
   0.000000000   0.000000000   7.281553398

ATOMIC_POSITIONS (crystal)
Sb       0.333333333   0.666666667   0.000738244
[...]

     total energy              =    -951.64188499 Ry
     Harris-Foulkes estimate   =    -951.64188499 Ry
     estimated scf accuracy    <       0.00000018 Ry

     iteration # 10     ecut=    47.00 Ry     beta= 0.30
     Davidson diagonalization with overlap
     ethr =  5.94E-10,  avg # of iterations =  1.0

     negative rho (up, down):  4.095E-03 0.000E+00

     total cpu time spent up to now is     2734.1 secs

     total energy              =    -951.64188500 Ry
     Harris-Foulkes estimate   =    -951.64188500 Ry
     estimated scf accuracy    <       0.00000013 Ry

     iteration # 11     ecut=    47.00 Ry     beta= 0.30
     Davidson diagonalization with overlap
     ethr =  4.19E-10,  avg # of iterations =  3.0

     negative rho (up, down):  4.095E-03 0.000E+00

     total cpu time spent up to now is     2746.0 secs

     total energy              =    -951.64188504 Ry
     Harris-Foulkes estimate   =    -951.64188504 Ry
     estimated scf accuracy    <          1.6E-09 Ry

     iteration # 12     ecut=    47.00 Ry     beta= 0.30
     Davidson diagonalization with overlap
     ethr =  5.23E-12,  avg # of iterations =  2.8

     negative rho (up, down):  4.095E-03 0.000E+00

     total cpu time spent up to now is     2757.3 secs

     total energy              =    -951.64188504 Ry
     Harris-Foulkes estimate   =    -951.64188504 Ry
     estimated scf accuracy    <          1.7E-10 Ry

     iteration # 13     ecut=    47.00 Ry     beta= 0.30
     Davidson diagonalization with overlap
     ethr =  5.66E-13,  avg # of iterations =  2.0

     negative rho (up, down):  4.095E-03 0.000E+00

     total cpu time spent up to now is     2767.9 secs

     total energy              =    -951.64188504 Ry
     Harris-Foulkes estimate   =    -951.64188504 Ry
     estimated scf accuracy    <          1.7E-10 Ry

     iteration # 14     ecut=    47.00 Ry     beta= 0.30
     Davidson diagonalization with overlap
     ethr =  5.59E-13,  avg # of iterations =  2.2

     negative rho (up, down):  4.095E-03 0.000E+00

     total cpu time spent up to now is     2779.9 secs

     total energy              =    -951.64188504 Ry
     Harris-Foulkes estimate   =    -951.64188504 Ry
     estimated scf accuracy    <          4.1E-10 Ry

     iteration # 15     ecut=    47.00 Ry     beta= 0.30
     Davidson diagonalization with overlap
     ethr =  5.59E-13,  avg # of iterations =  3.0

     negative rho (up, down):  4.095E-03 0.000E+00

     total cpu time spent up to now is     2791.2 secs

     total energy              =    -951.64188504 Ry
     Harris-Foulkes estimate   =    -951.64188504 Ry
     estimated scf accuracy    <          3.4E-10 Ry

     iteration # 16     ecut=    47.00 Ry     beta= 0.30
     Davidson diagonalization with overlap
     ethr =  5.59E-13,  avg # of iterations =  3.0

     negative rho (up, down):  4.095E-03 0.000E+00

     total cpu time spent up to now is     2802.4 secs

     End of self-consistent calculation

          k = 0.0000 0.0000 0.0000 ( 16293 PWs)   bands (ev):

   -31.4337 -31.4337 -31.3645 -31.3645 -31.3274 -31.2628 -31.2628 -31.2359
   -31.1873 -31.1873 -14.0518  -9.1223  -3.3723  -3.0222  -3.0222  -1.5235
    -0.2052  -0.2052   1.1335

          k = 0.0000 0.2851 0.0000 ( 16215 PWs)   bands (ev):

   -31.4306 -31.4051 -31.3609 -31.3471 -31.3185 -31.2757 -31.2656 -31.2447
   -31.2177 -31.1891 -13.4276  -9.3758  -5.4642  -3.9211  -3.3736  -1.5448
     0.4818   0.5239   1.7774

          k =-0.0000-0.5701 0.0000 ( 16122 PWs)   bands (ev):

   -31.4273 -31.3723 -31.3403 -31.3096 -31.3089 -31.3006 -31.2823 -31.2791
   -31.2392 -31.1910 -12.2144 -10.6594  -5.7523  -4.5011  -4.2733  -1.3053
    -0.3536   0.6272   2.2396

          k = 0.2469 0.4276 0.0000 ( 16160 PWs)   bands (ev):

   -31.4279 -31.3595 -31.3479 -31.3330 -31.3052 -31.2959 -31.2778 -31.2651
   -31.2453 -31.1931 -12.3098 -10.4173  -5.8745  -5.3104  -3.9217  -0.8055
    -0.0989   0.8834   3.1052

     the Fermi energy is    -2.2896 ev

!    total energy              =    -951.64188504 Ry
     Harris-Foulkes estimate   =    -951.64188504 Ry
     estimated scf accuracy    <          9.2E-11 Ry

     total all-electron energy =    -25926.374067 Ry

     The total energy is the sum of the following terms:

     one-electron contribution =   -1738.85305844 Ry
     hartree contribution      =     876.24301734 Ry
     xc contribution           =     -99.43825493 Ry
     ewald contribution        =     591.37898864 Ry
     one-center paw contrib.   =    -580.97257764 Ry
     smearing contrib. (-TS)   =       0.00000000 Ry

     convergence has been achieved in  16 iterations

     negative rho (up, down):  4.095E-03 0.000E+00

     Forces acting on atoms (cartesian axes, Ry/au):

     atom    1 type  1   force =     0.00000000    0.00000000    0.00004935
     atom    2 type  1   force =     0.00000000    0.00000000   -0.00004935

     Total force =     0.000070     Total SCF correction =     0.000034
     SCF correction compared to forces is large: reduce conv_thr to get better values


     Computing stress (Cartesian axis) and pressure


     negative rho (up, down):  4.095E-03 0.000E+00
          total   stress  (Ry/bohr**3)                   (kbar)     P=   -0.05
  -0.00000005   0.00000000  -0.00000000         -0.01      0.00     -0.00
   0.00000000  -0.00000005  -0.00000000          0.00     -0.01     -0.00
   0.00000000   0.00000000  -0.00000096          0.00      0.00     -0.14


     bfgs converged in  12 scf cycles and  11 bfgs steps
     (criteria: energy <  1.0E-06 Ry, force <  1.0E-04Ry/Bohr, cell <  5.0E-01kbar)

     End of BFGS Geometry Optimization

     Final enthalpy =    -951.6418850403 Ry
Begin final coordinates
     new unit-cell volume =   3051.85996 a.u.^3 (   452.23898 Ang^3 )
     density =      0.89416 g/cm^3

CELL_PARAMETERS (alat=  7.78567167)
   1.012653430  -0.000000000   0.000000000
  -0.506326715   0.876983595   0.000000000
   0.000000000   0.000000000   7.281553398

ATOMIC_POSITIONS (crystal)
Sb       0.333333333   0.666666667   0.000618205
Sb       0.666666667   0.333333333   0.054381795
End final coordinates



     Writing output data file antimonene_B.save/

     A final scf calculation at the relaxed structure.
     The G-vectors are recalculated for the final unit cell
     Results may differ from those at the preceding step.
 
     Parallelization info
     --------------------
     sticks:   dense  smooth     PW     G-vecs:    dense   smooth      PW
     Min         522     402    117                99402    66418   10064
     Max         523     403    118                99409    66441   10067
     Sum        1045     805    235               198811   132859   20131
 


     bravais-lattice index     =            4
     lattice parameter (alat)  =       7.7857  a.u.
     unit-cell volume          =    3051.8600 (a.u.)^3
     number of atoms/cell      =            2
     number of atomic types    =            1
     number of electrons       =        30.00
     number of Kohn-Sham states=           19
     kinetic-energy cutoff     =      47.0000  Ry
     charge density cutoff     =     246.0000  Ry
     convergence threshold     =      1.0E-10
     mixing beta               =       0.3000
     number of iterations used =            8  plain     mixing
     Exchange-correlation      = SLA PW PBX PBC ( 1  4  3  4 0 0)

     celldm(1)=   7.785672  celldm(2)=   1.000000  celldm(3)=   7.281553
     celldm(4)=   0.000000  celldm(5)=   0.000000  celldm(6)=   0.000000

     crystal axes: (cart. coord. in units of alat)
               a(1) = (   1.012653  -0.000000   0.000000 )  
               a(2) = (  -0.506327   0.876984   0.000000 )  
               a(3) = (   0.000000   0.000000   7.281553 )  

     reciprocal axes: (cart. coord. in units 2 pi/alat)
               b(1) = (  0.987505  0.570136  0.000000 )  
               b(2) = (  0.000000  1.140272  0.000000 )  
               b(3) = (  0.000000  0.000000  0.137333 )  


     PseudoPot. # 1 for Sb read from file:
     /home/latifah/quantumEspresso_2019/pslibrary.1.0.0/Sb.pbe-dn-kjpaw_psl.1.0.0.UPF
     MD5 check sum: 2f07ff22ac188143f4ca0c2e47e96dbe
     Pseudo is Projector augmented-wave + core cor, Zval = 15.0
     Generated using "atomic" code by A. Dal Corso v.6.4.1
     Shape of augmentation charge: PSQ
     Using radial grid of 1243 points,  6 beta functions with: 
                l(1) =   0
                l(2) =   0
                l(3) =   1
                l(4) =   1
                l(5) =   2
                l(6) =   2
     Q(r) pseudized with 0 coefficients 


     atomic species   valence    mass     pseudopotential
        Sb            15.00   121.76000     Sb( 1.00)

      6 Sym. Ops. (no inversion) found



   Cartesian axes

     site n.     atom                  positions (alat units)
         1           Sb  tau(   1) = (  -0.0000000   0.5846557   0.0045015  )
         2           Sb  tau(   2) = (   0.5063267   0.2923279   0.3959839  )

     number of k points=     4  Marzari-Vanderbilt smearing, width (Ry)=  0.0001
                       cart. coord. in units 2pi/alat
        k(    1) = (   0.0000000   0.0000000   0.0000000), wk =   0.1250000
        k(    2) = (   0.0000000   0.2850680   0.0000000), wk =   0.7500000
        k(    3) = (  -0.0000000  -0.5701361   0.0000000), wk =   0.3750000
        k(    4) = (   0.2468762   0.4276021   0.0000000), wk =   0.7500000

     Dense  grid:   198811 G-vectors     FFT dimensions: (  40,  40, 288)

     Smooth grid:   132859 G-vectors     FFT dimensions: (  36,  36, 250)

     Estimated max dynamical RAM per process >     382.22 MB

     Estimated total dynamical RAM >     764.45 MB

     Check: negative core charge=   -0.000001

     Initial potential from superposition of free atoms

     starting charge   29.99875, renormalised to   30.00000

     negative rho (up, down):  3.673E-03 0.000E+00
     Starting wfcs are   18 randomized atomic wfcs +    1 random wfcs
     Checking if some PAW data can be deallocated... 

     total cpu time spent up to now is     2840.0 secs

     Self-consistent Calculation

     iteration #  1     ecut=    47.00 Ry     beta= 0.30
     Davidson diagonalization with overlap
     c_bands:  1 eigenvalues not converged
     ethr =  1.00E-06,  avg # of iterations = 17.0

     negative rho (up, down):  3.648E-03 0.000E+00

     total cpu time spent up to now is     2860.7 secs

     total energy              =    -951.64261630 Ry
     Harris-Foulkes estimate   =    -951.64468723 Ry
     estimated scf accuracy    <       0.01941983 Ry

     iteration #  2     ecut=    47.00 Ry     beta= 0.30
     Davidson diagonalization with overlap
     ethr =  6.47E-05,  avg # of iterations =  1.0

     negative rho (up, down):  3.668E-03 0.000E+00

     total cpu time spent up to now is     2869.8 secs

     total energy              =    -951.64140046 Ry
     Harris-Foulkes estimate   =    -951.64279492 Ry
     estimated scf accuracy    <       0.00839694 Ry

     iteration #  3     ecut=    47.00 Ry     beta= 0.30
     Davidson diagonalization with overlap
     ethr =  2.80E-05,  avg # of iterations =  4.0

     negative rho (up, down):  3.624E-03 0.000E+00

     total cpu time spent up to now is     2880.5 secs

     total energy              =    -951.64188431 Ry
     Harris-Foulkes estimate   =    -951.64194559 Ry
     estimated scf accuracy    <       0.00025487 Ry

     iteration #  4     ecut=    47.00 Ry     beta= 0.30
     Davidson diagonalization with overlap
     ethr =  8.50E-07,  avg # of iterations = 10.5

     negative rho (up, down):  3.594E-03 0.000E+00

     total cpu time spent up to now is     2893.6 secs

     total energy              =    -951.64192550 Ry
     Harris-Foulkes estimate   =    -951.64195614 Ry
     estimated scf accuracy    <       0.00020943 Ry

     iteration #  5     ecut=    47.00 Ry     beta= 0.30
     Davidson diagonalization with overlap
     ethr =  6.98E-07,  avg # of iterations =  4.8

     negative rho (up, down):  3.581E-03 0.000E+00

     total cpu time spent up to now is     2904.6 secs

     total energy              =    -951.64194784 Ry
     Harris-Foulkes estimate   =    -951.64194970 Ry
     estimated scf accuracy    <       0.00001711 Ry

     iteration #  6     ecut=    47.00 Ry     beta= 0.30
     Davidson diagonalization with overlap
     ethr =  5.70E-08,  avg # of iterations =  3.2

     negative rho (up, down):  3.563E-03 0.000E+00

     total cpu time spent up to now is     2915.5 secs

     total energy              =    -951.64195043 Ry
     Harris-Foulkes estimate   =    -951.64195240 Ry
     estimated scf accuracy    <       0.00000675 Ry

     iteration #  7     ecut=    47.00 Ry     beta= 0.30
     Davidson diagonalization with overlap
     ethr =  2.25E-08,  avg # of iterations =  2.0

     negative rho (up, down):  3.557E-03 0.000E+00

     total cpu time spent up to now is     2926.0 secs

     total energy              =    -951.64195122 Ry
     Harris-Foulkes estimate   =    -951.64195123 Ry
     estimated scf accuracy    <       0.00000028 Ry

     iteration #  8     ecut=    47.00 Ry     beta= 0.30
     Davidson diagonalization with overlap
     ethr =  9.34E-10,  avg # of iterations =  2.8

     negative rho (up, down):  3.553E-03 0.000E+00

     total cpu time spent up to now is     2936.8 secs

     total energy              =    -951.64195128 Ry
     Harris-Foulkes estimate   =    -951.64195126 Ry
     estimated scf accuracy    <       0.00000006 Ry

     iteration #  9     ecut=    47.00 Ry     beta= 0.30
     Davidson diagonalization with overlap
     ethr =  1.86E-10,  avg # of iterations =  2.0

     negative rho (up, down):  3.550E-03 0.000E+00

     total cpu time spent up to now is     2947.7 secs

     total energy              =    -951.64195130 Ry
     Harris-Foulkes estimate   =    -951.64195129 Ry
     estimated scf accuracy    <          6.9E-09 Ry

     iteration # 10     ecut=    47.00 Ry     beta= 0.30
     Davidson diagonalization with overlap
     ethr =  2.32E-11,  avg # of iterations =  2.0

     negative rho (up, down):  3.548E-03 0.000E+00

     total cpu time spent up to now is     2958.4 secs

     total energy              =    -951.64195130 Ry
     Harris-Foulkes estimate   =    -951.64195130 Ry
     estimated scf accuracy    <          1.5E-09 Ry

     iteration # 11     ecut=    47.00 Ry     beta= 0.30
     Davidson diagonalization with overlap
     ethr =  5.07E-12,  avg # of iterations =  2.2

     negative rho (up, down):  3.544E-03 0.000E+00

     total cpu time spent up to now is     2968.0 secs

     End of self-consistent calculation

          k = 0.0000 0.0000 0.0000 ( 16665 PWs)   bands (ev):

   -31.4327 -31.4327 -31.3635 -31.3635 -31.3262 -31.2618 -31.2618 -31.2347
   -31.1862 -31.1862 -14.0509  -9.1215  -3.3711  -3.0212  -3.0212  -1.5222
    -0.2043  -0.2043   1.1492

          k = 0.0000 0.2851 0.0000 ( 16607 PWs)   bands (ev):

   -31.4296 -31.4042 -31.3600 -31.3462 -31.3173 -31.2748 -31.2646 -31.2435
   -31.2166 -31.1880 -13.4267  -9.3750  -5.4633  -3.9201  -3.3726  -1.5437
     0.4832   0.5247   1.7902

          k =-0.0000-0.5701 0.0000 ( 16586 PWs)   bands (ev):

   -31.4263 -31.3715 -31.3391 -31.3087 -31.3080 -31.2997 -31.2812 -31.2780
   -31.2381 -31.1899 -12.2135 -10.6586  -5.7515  -4.5001  -4.2725  -1.3044
    -0.3526   0.6281   2.2427

          k = 0.2469 0.4276 0.0000 ( 16601 PWs)   bands (ev):

   -31.4270 -31.3586 -31.3469 -31.3320 -31.3043 -31.2950 -31.2767 -31.2640
   -31.2441 -31.1920 -12.3090 -10.4165  -5.8736  -5.3096  -3.9208  -0.8046
    -0.0976   0.8843   3.1111

     the Fermi energy is    -2.2845 ev

!    total energy              =    -951.64195130 Ry
     Harris-Foulkes estimate   =    -951.64195130 Ry
     estimated scf accuracy    <          9.9E-11 Ry

     total all-electron energy =    -25926.374133 Ry

     The total energy is the sum of the following terms:

     one-electron contribution =   -1738.85493180 Ry
     hartree contribution      =     876.24503506 Ry
     xc contribution           =     -99.43832890 Ry
     ewald contribution        =     591.37898865 Ry
     one-center paw contrib.   =    -580.97271431 Ry
     smearing contrib. (-TS)   =       0.00000000 Ry

     convergence has been achieved in  11 iterations

     negative rho (up, down):  3.544E-03 0.000E+00

     Forces acting on atoms (cartesian axes, Ry/au):

     atom    1 type  1   force =     0.00000000    0.00000000   -0.00008669
     atom    2 type  1   force =     0.00000000    0.00000000    0.00008669

     Total force =     0.000123     Total SCF correction =     0.000039
     SCF correction compared to forces is large: reduce conv_thr to get better values


     Computing stress (Cartesian axis) and pressure


     negative rho (up, down):  3.544E-03 0.000E+00
          total   stress  (Ry/bohr**3)                   (kbar)     P=    0.29
   0.00000288  -0.00000000   0.00000000          0.42     -0.00      0.00
  -0.00000000   0.00000288   0.00000000         -0.00      0.42      0.00
   0.00000000   0.00000000   0.00000021          0.00      0.00      0.03


     Writing output data file antimonene_B.save/
 
     init_run     :     10.98s CPU     26.65s WALL (       2 calls)
     electrons    :   1055.55s CPU   2358.84s WALL (      13 calls)
     update_pot   :     86.44s CPU    185.40s WALL (      11 calls)
     forces       :     56.62s CPU    119.18s WALL (      13 calls)
     stress       :    117.03s CPU    256.18s WALL (      13 calls)

     Called by init_run:
     wfcinit      :      2.01s CPU      4.61s WALL (       2 calls)
     potinit      :      3.08s CPU      6.46s WALL (       2 calls)
     hinit0       :      4.78s CPU     11.69s WALL (       2 calls)

     Called by electrons:
     c_bands      :    605.68s CPU   1282.00s WALL (     197 calls)
     sum_band     :    202.25s CPU    496.54s WALL (     197 calls)
     v_of_rho     :     60.18s CPU    129.95s WALL (     209 calls)
     newd         :     76.51s CPU    219.69s WALL (     209 calls)
     PAW_pot      :     57.91s CPU    122.77s WALL (     220 calls)
     mix_rho      :     56.24s CPU    118.76s WALL (     197 calls)

     Called by c_bands:
     init_us_2    :      7.33s CPU     13.66s WALL (    1732 calls)
     cegterg      :    569.55s CPU   1205.90s WALL (     788 calls)

     Called by sum_band:
     sum_band:bec :      0.03s CPU      0.03s WALL (     832 calls)
     addusdens    :     88.38s CPU    253.90s WALL (     197 calls)

     Called by *egterg:
     h_psi        :    447.21s CPU    944.87s WALL (    3542 calls)
     s_psi        :     10.74s CPU     22.23s WALL (    3542 calls)
     g_psi        :      1.79s CPU      3.67s WALL (    2746 calls)
     cdiaghg      :     32.03s CPU     67.87s WALL (    3486 calls)

     Called by h_psi:
     h_psi:pot    :    445.28s CPU    941.37s WALL (    3542 calls)
     h_psi:calbec :     29.25s CPU     66.01s WALL (    3542 calls)
     vloc_psi     :    404.78s CPU    857.54s WALL (    3542 calls)
     add_vuspsi   :     11.17s CPU     17.76s WALL (    3542 calls)

     General routines
     calbec       :     39.63s CPU     90.26s WALL (    4634 calls)
     fft          :     45.00s CPU     96.31s WALL (    3028 calls)
     ffts         :      3.27s CPU      6.68s WALL (     406 calls)
     fftw         :    431.80s CPU    927.55s WALL (   90886 calls)
     interpolate  :      5.60s CPU     11.94s WALL (     209 calls)
 
     Parallel routines
     fft_scatt_xy :     67.70s CPU    109.52s WALL (   94320 calls)
     fft_scatt_yz :    202.26s CPU    526.70s WALL (   94320 calls)
 
     PWSCF        :  22m21.32s CPU  49m42.80s WALL

 
   This run was terminated on:   0: 4:57  29Oct2019            

=------------------------------------------------------------------------------=
   JOB DONE.
=------------------------------------------------------------------------------=
