
     Program PROJWFC v.6.4.1 starts on 24Jan2020 at  4:47:44 

     This program is part of the open-source Quantum ESPRESSO suite
     for quantum simulation of materials; please cite
         "P. Giannozzi et al., J. Phys.:Condens. Matter 21 395502 (2009);
         "P. Giannozzi et al., J. Phys.:Condens. Matter 29 465901 (2017);
          URL http://www.quantum-espresso.org", 
     in publications or presentations arising from this work. More details at
     http://www.quantum-espresso.org/quote

     Parallel version (MPI), running on     2 processors

     MPI processes distributed on     1 nodes
     R & G space division:  proc/nbgrp/npool/nimage =       2

     Reading data from directory:
     ./outdir/antimonene_B.save/

     IMPORTANT: XC functional enforced from input :
     Exchange-correlation      = PBE ( 1  4  3  4 0 0)
     Any further DFT definition will be discarded
     Please, verify this is what you really want

               file Sb.pbe-dn-kjpaw_psl.1.0.0.UPF: wavefunction(s)  5S 4D renormalized
 
     Parallelization info
     --------------------
     sticks:   dense  smooth     PW     G-vecs:    dense   smooth      PW
     Min         423     402    117                72853    66418   10241
     Max         424     403    118                72896    66441   10250
     Sum         847     805    235               145749   132859   20491
 

     Check: negative core charge=   -0.000003

     negative rho (up, down):  2.042E-03 0.000E+00

     Linear tetrahedron method (read from file) 
     [opt_tetra]  Linear tetrahedron method is used.

     Calling projwave .... 

     Atomic states used for projection
     (read from pseudopotential files):

     state #   1: atom   1 (Sb ), wfc  1 (l=0 m= 1)
     state #   2: atom   1 (Sb ), wfc  2 (l=1 m= 1)
     state #   3: atom   1 (Sb ), wfc  2 (l=1 m= 2)
     state #   4: atom   1 (Sb ), wfc  2 (l=1 m= 3)
     state #   5: atom   1 (Sb ), wfc  3 (l=2 m= 1)
     state #   6: atom   1 (Sb ), wfc  3 (l=2 m= 2)
     state #   7: atom   1 (Sb ), wfc  3 (l=2 m= 3)
     state #   8: atom   1 (Sb ), wfc  3 (l=2 m= 4)
     state #   9: atom   1 (Sb ), wfc  3 (l=2 m= 5)
     state #  10: atom   2 (Sb ), wfc  1 (l=0 m= 1)
     state #  11: atom   2 (Sb ), wfc  2 (l=1 m= 1)
     state #  12: atom   2 (Sb ), wfc  2 (l=1 m= 2)
     state #  13: atom   2 (Sb ), wfc  2 (l=1 m= 3)
     state #  14: atom   2 (Sb ), wfc  3 (l=2 m= 1)
     state #  15: atom   2 (Sb ), wfc  3 (l=2 m= 2)
     state #  16: atom   2 (Sb ), wfc  3 (l=2 m= 3)
     state #  17: atom   2 (Sb ), wfc  3 (l=2 m= 4)
     state #  18: atom   2 (Sb ), wfc  3 (l=2 m= 5)

 k =   0.0000000000  0.0000000000  0.0000000000
==== e(   1) =   -31.38168 eV ==== 
     psi = 0.138*[#   6]+0.138*[#   7]+0.138*[#  15]+0.138*[#  16]+0.112*[#   8]+
          +0.112*[#   9]+0.112*[#  17]+0.112*[#  18]+
    |psi|^2 = 1.000
==== e(   2) =   -31.38168 eV ==== 
     psi = 0.138*[#   6]+0.138*[#   7]+0.138*[#  15]+0.138*[#  16]+0.112*[#   8]+
          +0.112*[#   9]+0.112*[#  17]+0.112*[#  18]+
    |psi|^2 = 1.000
==== e(   3) =   -31.31735 eV ==== 
     psi = 0.188*[#   8]+0.188*[#   9]+0.188*[#  17]+0.188*[#  18]+0.062*[#   6]+
          +0.062*[#   7]+0.062*[#  15]+0.062*[#  16]+
    |psi|^2 = 1.000
==== e(   4) =   -31.31735 eV ==== 
     psi = 0.188*[#   8]+0.188*[#   9]+0.188*[#  17]+0.188*[#  18]+0.062*[#   6]+
          +0.062*[#   7]+0.062*[#  15]+0.062*[#  16]+
    |psi|^2 = 1.000
==== e(   5) =   -31.28419 eV ==== 
     psi = 0.500*[#   5]+0.500*[#  14]+
    |psi|^2 = 1.000
==== e(   6) =   -31.22370 eV ==== 
     psi = 0.138*[#   8]+0.138*[#   9]+0.138*[#  17]+0.138*[#  18]+0.112*[#   6]+
          +0.112*[#   7]+0.112*[#  15]+0.112*[#  16]+
    |psi|^2 = 1.000
==== e(   7) =   -31.22370 eV ==== 
     psi = 0.138*[#   8]+0.138*[#   9]+0.138*[#  17]+0.138*[#  18]+0.112*[#   6]+
          +0.112*[#   7]+0.112*[#  15]+0.112*[#  16]+
    |psi|^2 = 1.000
==== e(   8) =   -31.19720 eV ==== 
     psi = 0.500*[#   5]+0.500*[#  14]+
    |psi|^2 = 1.000
==== e(   9) =   -31.15127 eV ==== 
     psi = 0.188*[#   6]+0.188*[#   7]+0.188*[#  15]+0.188*[#  16]+0.062*[#   8]+
          +0.062*[#   9]+0.062*[#  17]+0.062*[#  18]+
    |psi|^2 = 1.000
==== e(  10) =   -31.15127 eV ==== 
     psi = 0.188*[#   6]+0.188*[#   7]+0.188*[#  15]+0.188*[#  16]+0.062*[#   8]+
          +0.062*[#   9]+0.062*[#  17]+0.062*[#  18]+
    |psi|^2 = 1.000
==== e(  11) =   -13.91879 eV ==== 
     psi = 0.452*[#   1]+0.452*[#  10]+0.047*[#   2]+0.047*[#  11]+
    |psi|^2 = 0.999
==== e(  12) =    -9.16075 eV ==== 
     psi = 0.367*[#   1]+0.367*[#  10]+0.132*[#   2]+0.132*[#  11]+
    |psi|^2 = 0.998
==== e(  13) =    -3.40982 eV ==== 
     psi = 0.442*[#   2]+0.442*[#  11]+0.047*[#   1]+0.047*[#  10]+
    |psi|^2 = 0.979
==== e(  14) =    -2.89098 eV ==== 
     psi = 0.246*[#   3]+0.246*[#   4]+0.246*[#  12]+0.246*[#  13]+
    |psi|^2 = 0.984
==== e(  15) =    -2.89098 eV ==== 
     psi = 0.246*[#   3]+0.246*[#   4]+0.246*[#  12]+0.246*[#  13]+
    |psi|^2 = 0.984
==== e(  16) =    -1.41238 eV ==== 
     psi = 0.351*[#   2]+0.351*[#  11]+0.129*[#   1]+0.129*[#  10]+
    |psi|^2 = 0.960
==== e(  17) =    -0.15828 eV ==== 
     psi = 0.239*[#   3]+0.239*[#   4]+0.239*[#  12]+0.239*[#  13]+
    |psi|^2 = 0.958
==== e(  18) =    -0.15828 eV ==== 
     psi = 0.239*[#   3]+0.239*[#   4]+0.239*[#  12]+0.239*[#  13]+
    |psi|^2 = 0.958
==== e(  19) =     1.32460 eV ==== 
     psi = 
    |psi|^2 = 0.001

 k =   0.0000000000  0.1425340231  0.0000000000
==== e(   1) =   -31.38081 eV ==== 
     psi = 0.137*[#   6]+0.137*[#   7]+0.137*[#  15]+0.137*[#  16]+0.113*[#   8]+
          +0.113*[#   9]+0.113*[#  17]+0.113*[#  18]+
    |psi|^2 = 1.000
==== e(   2) =   -31.37453 eV ==== 
     psi = 0.135*[#   6]+0.135*[#   7]+0.135*[#  15]+0.135*[#  16]+0.115*[#   8]+
          +0.115*[#   9]+0.115*[#  17]+0.115*[#  18]+
    |psi|^2 = 1.000
==== e(   3) =   -31.31645 eV ==== 
     psi = 0.183*[#   8]+0.183*[#   9]+0.183*[#  17]+0.183*[#  18]+0.065*[#   6]+
          +0.065*[#   7]+0.065*[#  15]+0.065*[#  16]+0.005*[#   5]+0.005*[#  14]+
    |psi|^2 = 1.000
==== e(   4) =   -31.31307 eV ==== 
     psi = 0.184*[#   8]+0.184*[#   9]+0.184*[#  17]+0.184*[#  18]+0.065*[#   6]+
          +0.065*[#   7]+0.065*[#  15]+0.065*[#  16]+
    |psi|^2 = 1.000
==== e(   5) =   -31.28217 eV ==== 
     psi = 0.485*[#   5]+0.485*[#  14]+0.005*[#   8]+0.005*[#   9]+0.005*[#  17]+
          +0.005*[#  18]+0.003*[#   6]+0.003*[#   7]+0.003*[#  15]+0.003*[#  16]+
    |psi|^2 = 1.000
==== e(   6) =   -31.22676 eV ==== 
     psi = 0.140*[#   8]+0.140*[#   9]+0.140*[#  17]+0.140*[#  18]+0.110*[#   6]+
          +0.110*[#   7]+0.110*[#  15]+0.110*[#  16]+
    |psi|^2 = 1.000
==== e(   7) =   -31.22411 eV ==== 
     psi = 0.135*[#   8]+0.135*[#   9]+0.135*[#  17]+0.135*[#  18]+0.108*[#   6]+
          +0.108*[#   7]+0.108*[#  15]+0.108*[#  16]+0.015*[#   5]+0.015*[#  14]+
    |psi|^2 = 1.000
==== e(   8) =   -31.19904 eV ==== 
     psi = 0.493*[#   5]+0.493*[#  14]+0.003*[#   8]+0.003*[#   9]+0.003*[#  17]+
          +0.003*[#  18]+
    |psi|^2 = 1.000
==== e(   9) =   -31.15936 eV ==== 
     psi = 0.190*[#   6]+0.190*[#   7]+0.190*[#  15]+0.190*[#  16]+0.059*[#   8]+
          +0.059*[#   9]+0.059*[#  17]+0.059*[#  18]+0.002*[#   5]+0.002*[#  14]+
    |psi|^2 = 1.000
==== e(  10) =   -31.15172 eV ==== 
     psi = 0.188*[#   6]+0.188*[#   7]+0.188*[#  15]+0.188*[#  16]+0.062*[#   8]+
          +0.062*[#   9]+0.062*[#  17]+0.062*[#  18]+
    |psi|^2 = 1.000
==== e(  11) =   -13.76043 eV ==== 
     psi = 0.435*[#   1]+0.435*[#  10]+0.043*[#   2]+0.043*[#  11]+0.010*[#   3]+
          +0.010*[#   4]+0.010*[#  12]+0.010*[#  13]+
    |psi|^2 = 0.999
==== e(  12) =    -9.17520 eV ==== 
     psi = 0.386*[#   1]+0.386*[#  10]+0.111*[#   2]+0.111*[#  11]+
    |psi|^2 = 0.998
==== e(  13) =    -4.09365 eV ==== 
     psi = 0.184*[#   3]+0.184*[#   4]+0.184*[#  12]+0.184*[#  13]+0.102*[#   2]+
          +0.102*[#  11]+0.020*[#   1]+0.020*[#  10]+
    |psi|^2 = 0.981
==== e(  14) =    -3.35726 eV ==== 
     psi = 0.442*[#   2]+0.442*[#  11]+0.047*[#   1]+0.047*[#  10]+
    |psi|^2 = 0.983
==== e(  15) =    -3.21620 eV ==== 
     psi = 0.246*[#   3]+0.246*[#   4]+0.246*[#  12]+0.246*[#  13]+
    |psi|^2 = 0.984
==== e(  16) =    -0.91920 eV ==== 
     psi = 0.152*[#   3]+0.152*[#   4]+0.152*[#  12]+0.152*[#  13]+0.120*[#   2]+
          +0.120*[#  11]+0.052*[#   1]+0.052*[#  10]+
    |psi|^2 = 0.951
==== e(  17) =    -0.04804 eV ==== 
     psi = 0.154*[#   2]+0.154*[#  11]+0.135*[#   3]+0.135*[#   4]+0.135*[#  12]+
          +0.135*[#  13]+0.054*[#   1]+0.054*[#  10]+
    |psi|^2 = 0.955
==== e(  18) =     0.14268 eV ==== 
     psi = 0.243*[#   3]+0.243*[#   4]+0.243*[#  12]+0.243*[#  13]+
    |psi|^2 = 0.974
==== e(  19) =     1.52533 eV ==== 
     psi = 0.002*[#   3]+0.002*[#   4]+0.002*[#  12]+0.002*[#  13]+
    |psi|^2 = 0.010

 k =   0.0000000000  0.2850680462  0.0000000000
==== e(   1) =   -31.37863 eV ==== 
     psi = 0.134*[#   6]+0.134*[#   7]+0.134*[#  15]+0.134*[#  16]+0.116*[#   8]+
          +0.116*[#   9]+0.116*[#  17]+0.116*[#  18]+
    |psi|^2 = 1.000
==== e(   2) =   -31.35485 eV ==== 
     psi = 0.132*[#   8]+0.132*[#   9]+0.131*[#  17]+0.131*[#  18]+0.118*[#   6]+
          +0.118*[#   7]+0.118*[#  15]+0.118*[#  16]+
    |psi|^2 = 1.000
==== e(   3) =   -31.31441 eV ==== 
     psi = 0.156*[#   8]+0.156*[#   9]+0.156*[#  17]+0.156*[#  18]+0.079*[#   6]+
          +0.079*[#   7]+0.079*[#  15]+0.079*[#  16]+0.029*[#   5]+0.029*[#  14]+
    |psi|^2 = 1.000
==== e(   4) =   -31.30132 eV ==== 
     psi = 0.177*[#   8]+0.177*[#   9]+0.177*[#  17]+0.177*[#  18]+0.073*[#   6]+
          +0.073*[#   7]+0.073*[#  15]+0.073*[#  16]+
    |psi|^2 = 1.000
==== e(   5) =   -31.27538 eV ==== 
     psi = 0.426*[#   5]+0.426*[#  14]+0.026*[#   8]+0.026*[#   9]+0.026*[#  17]+
          +0.026*[#  18]+0.011*[#   6]+0.011*[#   7]+0.011*[#  15]+0.011*[#  16]+
    |psi|^2 = 1.000
==== e(   6) =   -31.23561 eV ==== 
     psi = 0.146*[#   8]+0.146*[#   9]+0.146*[#  17]+0.146*[#  18]+0.104*[#   6]+
          +0.104*[#   7]+0.104*[#  15]+0.104*[#  16]+
    |psi|^2 = 1.000
==== e(   7) =   -31.22643 eV ==== 
     psi = 0.119*[#   8]+0.119*[#   9]+0.119*[#  17]+0.119*[#  18]+0.091*[#   6]+
          +0.091*[#   7]+0.091*[#  15]+0.091*[#  16]+0.079*[#   5]+0.079*[#  14]+
    |psi|^2 = 1.000
==== e(   8) =   -31.20455 eV ==== 
     psi = 0.435*[#   5]+0.436*[#  14]+0.026*[#   8]+0.026*[#   9]+0.026*[#  17]+
          +0.026*[#  18]+0.007*[#   6]+0.007*[#   7]+0.007*[#  15]+0.007*[#  16]+
    |psi|^2 = 1.000
==== e(   9) =   -31.18074 eV ==== 
     psi = 0.194*[#   6]+0.194*[#   7]+0.194*[#  15]+0.194*[#  16]+0.041*[#   8]+
          +0.041*[#   9]+0.041*[#  17]+0.041*[#  18]+0.030*[#   5]+0.030*[#  14]+
    |psi|^2 = 1.000
==== e(  10) =   -31.15285 eV ==== 
     psi = 0.189*[#   6]+0.189*[#   7]+0.189*[#  15]+0.189*[#  16]+0.061*[#   8]+
          +0.061*[#   9]+0.061*[#  17]+0.061*[#  18]+
    |psi|^2 = 1.000
==== e(  11) =   -13.29951 eV ==== 
     psi = 0.410*[#   1]+0.410*[#  10]+0.033*[#   2]+0.033*[#  11]+0.028*[#   3]+
          +0.028*[#   4]+0.028*[#  12]+0.028*[#  13]+
    |psi|^2 = 0.999
==== e(  12) =    -9.37536 eV ==== 
     psi = 0.426*[#   1]+0.426*[#  10]+0.053*[#   2]+0.053*[#  11]+0.009*[#   3]+
          +0.009*[#   4]+0.009*[#  12]+0.009*[#  13]+
    |psi|^2 = 0.997
==== e(  13) =    -5.35800 eV ==== 
     psi = 0.166*[#   3]+0.166*[#   4]+0.166*[#  12]+0.166*[#  13]+0.157*[#   2]+
          +0.157*[#  11]+0.004*[#   1]+0.004*[#  10]+
    |psi|^2 = 0.985
==== e(  14) =    -3.78640 eV ==== 
     psi = 0.247*[#   3]+0.247*[#   4]+0.247*[#  12]+0.247*[#  13]+
    |psi|^2 = 0.988
==== e(  15) =    -3.39268 eV ==== 
     psi = 0.394*[#   2]+0.394*[#  11]+0.063*[#   1]+0.063*[#  10]+0.019*[#   3]+
          +0.019*[#   4]+0.019*[#  12]+0.019*[#  13]+
    |psi|^2 = 0.989
==== e(  16) =    -1.51022 eV ==== 
     psi = 0.160*[#   3]+0.160*[#   4]+0.160*[#  12]+0.160*[#  13]+0.117*[#   2]+
          +0.117*[#  11]+0.040*[#   1]+0.040*[#  10]+
    |psi|^2 = 0.954
==== e(  17) =     0.49811 eV ==== 
     psi = 0.189*[#   2]+0.189*[#  11]+0.095*[#   3]+0.095*[#   4]+0.095*[#  12]+
          +0.095*[#  13]+0.044*[#   1]+0.044*[#  10]+
    |psi|^2 = 0.847
==== e(  18) =     0.51273 eV ==== 
     psi = 0.247*[#   3]+0.247*[#   4]+0.247*[#  12]+0.247*[#  13]+
    |psi|^2 = 0.987
==== e(  19) =     1.93864 eV ==== 
     psi = 0.003*[#   2]+0.003*[#  11]+
    |psi|^2 = 0.007

 k =   0.0000000000  0.4276020693  0.0000000000
==== e(   1) =   -31.37637 eV ==== 
     psi = 0.132*[#   6]+0.132*[#   7]+0.132*[#  15]+0.132*[#  16]+0.118*[#   8]+
          +0.118*[#   9]+0.118*[#  17]+0.118*[#  18]+
    |psi|^2 = 1.000
==== e(   2) =   -31.33169 eV ==== 
     psi = 0.201*[#   8]+0.201*[#   9]+0.201*[#  17]+0.201*[#  18]+0.044*[#   6]+
          +0.044*[#   7]+0.044*[#  15]+0.044*[#  16]+0.011*[#   5]+0.011*[#  14]+
    |psi|^2 = 1.000
==== e(   3) =   -31.30787 eV ==== 
     psi = 0.156*[#   6]+0.156*[#   7]+0.156*[#  15]+0.156*[#  16]+0.067*[#   8]+
          +0.067*[#   9]+0.067*[#  17]+0.067*[#  18]+0.054*[#   5]+0.054*[#  14]+
    |psi|^2 = 1.000
==== e(   4) =   -31.28473 eV ==== 
     psi = 0.168*[#   8]+0.168*[#   9]+0.168*[#  17]+0.168*[#  18]+0.082*[#   6]+
          +0.082*[#   7]+0.082*[#  15]+0.082*[#  16]+
    |psi|^2 = 1.000
==== e(   5) =   -31.26473 eV ==== 
     psi = 0.307*[#   5]+0.307*[#  14]+0.079*[#   8]+0.079*[#   9]+0.079*[#  17]+
          +0.079*[#  18]+0.017*[#   6]+0.017*[#   7]+0.017*[#  15]+0.017*[#  16]+
    |psi|^2 = 1.000
==== e(   6) =   -31.24935 eV ==== 
     psi = 0.153*[#   8]+0.153*[#   9]+0.153*[#  17]+0.153*[#  18]+0.097*[#   6]+
          +0.097*[#   7]+0.097*[#  15]+0.097*[#  16]+
    |psi|^2 = 1.000
==== e(   7) =   -31.23308 eV ==== 
     psi = 0.216*[#   5]+0.216*[#  14]+0.084*[#   8]+0.084*[#   9]+0.084*[#  17]+
          +0.084*[#  18]+0.058*[#   6]+0.058*[#   7]+0.058*[#  15]+0.058*[#  16]+
    |psi|^2 = 1.000
==== e(   8) =   -31.22081 eV ==== 
     psi = 0.182*[#   5]+0.182*[#  14]+0.096*[#   6]+0.096*[#   7]+0.096*[#  15]+
          +0.096*[#  16]+0.063*[#   8]+0.063*[#   9]+0.063*[#  17]+0.063*[#  18]+
    |psi|^2 = 1.000
==== e(   9) =   -31.19898 eV ==== 
     psi = 0.230*[#   5]+0.230*[#  14]+0.128*[#   6]+0.128*[#   7]+0.128*[#  15]+
          +0.128*[#  16]+0.007*[#   8]+0.007*[#   9]+0.007*[#  17]+0.007*[#  18]+
    |psi|^2 = 1.000
==== e(  10) =   -31.15405 eV ==== 
     psi = 0.189*[#   6]+0.189*[#   7]+0.189*[#  15]+0.189*[#  16]+0.060*[#   8]+
          +0.060*[#   9]+0.060*[#  17]+0.060*[#  18]+
    |psi|^2 = 1.000
==== e(  11) =   -12.60787 eV ==== 
     psi = 0.407*[#   1]+0.407*[#  10]+0.035*[#   3]+0.035*[#   4]+0.035*[#  12]+
          +0.035*[#  13]+0.022*[#   2]+0.022*[#  11]+
    |psi|^2 = 0.998
==== e(  12) =   -10.01961 eV ==== 
     psi = 0.417*[#   1]+0.417*[#  10]+0.036*[#   3]+0.036*[#   4]+0.036*[#  12]+
          +0.036*[#  13]+0.008*[#   2]+0.008*[#  11]+
    |psi|^2 = 0.995
==== e(  13) =    -5.78277 eV ==== 
     psi = 0.183*[#   2]+0.183*[#  11]+0.139*[#   3]+0.139*[#   4]+0.139*[#  12]+
          +0.139*[#  13]+0.033*[#   1]+0.033*[#  10]+
    |psi|^2 = 0.991
==== e(  14) =    -4.21192 eV ==== 
     psi = 0.247*[#   3]+0.247*[#   4]+0.247*[#  12]+0.247*[#  13]+
    |psi|^2 = 0.990
==== e(  15) =    -3.88238 eV ==== 
     psi = 0.287*[#   2]+0.287*[#  11]+0.074*[#   1]+0.074*[#  10]+0.068*[#   3]+
          +0.068*[#   4]+0.068*[#  12]+0.068*[#  13]+
    |psi|^2 = 0.994
==== e(  16) =    -1.48685 eV ==== 
     psi = 0.237*[#   2]+0.237*[#  11]+0.099*[#   3]+0.099*[#   4]+0.099*[#  12]+
          +0.099*[#  13]+0.031*[#   1]+0.031*[#  10]+
    |psi|^2 = 0.932
==== e(  17) =    -0.03209 eV ==== 
     psi = 0.191*[#   2]+0.191*[#  11]+0.098*[#   3]+0.098*[#   4]+0.098*[#  12]+
          +0.098*[#  13]+0.022*[#   1]+0.022*[#  10]+
    |psi|^2 = 0.819
==== e(  18) =     0.59587 eV ==== 
     psi = 0.244*[#   3]+0.244*[#   4]+0.244*[#  12]+0.244*[#  13]+
    |psi|^2 = 0.977
==== e(  19) =     2.46743 eV ==== 
     psi = 0.021*[#   2]+0.021*[#  11]+0.009*[#   3]+0.009*[#   4]+0.009*[#  12]+
          +0.009*[#  13]+0.002*[#   1]+0.002*[#  10]+
    |psi|^2 = 0.081

 k =   0.0000000000 -0.5701360925  0.0000000000
==== e(   1) =   -31.37540 eV ==== 
     psi = 0.131*[#   6]+0.131*[#   7]+0.131*[#  15]+0.131*[#  16]+0.118*[#   8]+
          +0.118*[#   9]+0.118*[#  17]+0.118*[#  18]+
    |psi|^2 = 1.000
==== e(   2) =   -31.32477 eV ==== 
     psi = 0.232*[#   8]+0.232*[#   9]+0.232*[#  17]+0.232*[#  18]+0.036*[#   5]+
          +0.036*[#  14]+
    |psi|^2 = 1.000
==== e(   3) =   -31.29400 eV ==== 
     psi = 0.219*[#   6]+0.219*[#   7]+0.219*[#  15]+0.219*[#  16]+0.058*[#   5]+
          +0.058*[#  14]+0.002*[#   8]+0.002*[#   9]+0.002*[#  17]+0.002*[#  18]+
    |psi|^2 = 1.000
==== e(   4) =   -31.26659 eV ==== 
     psi = 0.134*[#   8]+0.134*[#   9]+0.129*[#  17]+0.129*[#  18]+0.120*[#   6]+
          +0.120*[#   7]+0.117*[#  15]+0.117*[#  16]+
    |psi|^2 = 1.000
==== e(   5) =   -31.26632 eV ==== 
     psi = 0.192*[#  17]+0.192*[#  18]+0.188*[#   8]+0.188*[#   9]+0.061*[#  15]+
          +0.061*[#  16]+0.059*[#   6]+0.059*[#   7]+
    |psi|^2 = 1.000
==== e(   6) =   -31.25929 eV ==== 
     psi = 0.201*[#   8]+0.201*[#   9]+0.201*[#  17]+0.201*[#  18]+0.091*[#   5]+
          +0.091*[#  14]+0.003*[#   6]+0.003*[#   7]+0.003*[#  15]+0.003*[#  16]+
    |psi|^2 = 1.000
==== e(   7) =   -31.23945 eV ==== 
     psi = 0.407*[#   5]+0.406*[#  14]+0.031*[#   6]+0.031*[#   7]+0.031*[#  15]+
          +0.031*[#  16]+0.016*[#  17]+0.016*[#  18]+0.016*[#   8]+0.016*[#   9]+
    |psi|^2 = 1.000
==== e(   8) =   -31.23783 eV ==== 
     psi = 0.147*[#  15]+0.147*[#  16]+0.146*[#   6]+0.146*[#   7]+0.144*[#  14]+
          +0.143*[#   5]+0.031*[#   8]+0.031*[#   9]+0.031*[#  17]+0.031*[#  18]+
    |psi|^2 = 1.000
==== e(   9) =   -31.20215 eV ==== 
     psi = 0.265*[#   5]+0.265*[#  14]+0.100*[#   6]+0.100*[#   7]+0.100*[#  15]+
          +0.100*[#  16]+0.018*[#   8]+0.018*[#   9]+0.018*[#  17]+0.018*[#  18]+
    |psi|^2 = 1.000
==== e(  10) =   -31.15455 eV ==== 
     psi = 0.190*[#   6]+0.190*[#   7]+0.190*[#  15]+0.190*[#  16]+0.060*[#   8]+
          +0.060*[#   9]+0.060*[#  17]+0.060*[#  18]+
    |psi|^2 = 1.000
==== e(  11) =   -12.09989 eV ==== 
     psi = 0.428*[#   1]+0.428*[#  10]+0.028*[#   3]+0.028*[#   4]+0.028*[#  12]+
          +0.028*[#  13]+0.015*[#   2]+0.015*[#  11]+
    |psi|^2 = 0.997
==== e(  12) =   -10.57902 eV ==== 
     psi = 0.380*[#   1]+0.380*[#  10]+0.058*[#   3]+0.058*[#   4]+0.058*[#  12]+
          +0.058*[#  13]+
    |psi|^2 = 0.995
==== e(  13) =    -5.71612 eV ==== 
     psi = 0.176*[#   2]+0.176*[#  11]+0.124*[#   3]+0.124*[#   4]+0.124*[#  12]+
          +0.124*[#  13]+0.073*[#   1]+0.073*[#  10]+
    |psi|^2 = 0.994
==== e(  14) =    -4.36368 eV ==== 
     psi = 0.248*[#   3]+0.248*[#   4]+0.248*[#  12]+0.248*[#  13]+
    |psi|^2 = 0.991
==== e(  15) =    -4.26936 eV ==== 
     psi = 0.262*[#   2]+0.262*[#  11]+0.088*[#   3]+0.088*[#   4]+0.088*[#  12]+
          +0.088*[#  13]+0.060*[#   1]+0.060*[#  10]+
    |psi|^2 = 0.995
==== e(  16) =    -1.23134 eV ==== 
     psi = 0.279*[#   2]+0.279*[#  11]+0.059*[#   3]+0.059*[#   4]+0.059*[#  12]+
          +0.059*[#  13]+0.040*[#   1]+0.040*[#  10]+
    |psi|^2 = 0.875
==== e(  17) =    -0.41783 eV ==== 
     psi = 0.205*[#   2]+0.205*[#  11]+0.123*[#   3]+0.123*[#   4]+0.123*[#  12]+
          +0.123*[#  13]+0.007*[#   1]+0.007*[#  10]+
    |psi|^2 = 0.917
==== e(  18) =     0.58450 eV ==== 
     psi = 0.243*[#   3]+0.243*[#   4]+0.243*[#  12]+0.243*[#  13]+
    |psi|^2 = 0.971
==== e(  19) =     2.24611 eV ==== 
     psi = 0.013*[#   2]+0.013*[#  11]+0.006*[#   3]+0.006*[#   4]+0.006*[#  12]+
          +0.006*[#  13]+0.001*[#   1]+0.001*[#  10]+
    |psi|^2 = 0.051

 k =   0.1234380848  0.2138010347  0.0000000000
==== e(   1) =   -31.37937 eV ==== 
     psi = 0.133*[#   6]+0.133*[#   7]+0.133*[#  15]+0.133*[#  16]+0.117*[#   8]+
          +0.117*[#   9]+0.117*[#  17]+0.117*[#  18]+
    |psi|^2 = 1.000
==== e(   2) =   -31.36088 eV ==== 
     psi = 0.128*[#   6]+0.128*[#   7]+0.128*[#  15]+0.128*[#  16]+0.122*[#   8]+
          +0.122*[#   9]+0.122*[#  17]+0.122*[#  18]+
    |psi|^2 = 1.000
==== e(   3) =   -31.31407 eV ==== 
     psi = 0.178*[#   8]+0.178*[#   9]+0.178*[#  17]+0.178*[#  18]+0.068*[#   6]+
          +0.068*[#   7]+0.068*[#  15]+0.068*[#  16]+0.008*[#   5]+0.008*[#  14]+
    |psi|^2 = 1.000
==== e(   4) =   -31.30645 eV ==== 
     psi = 0.167*[#   8]+0.167*[#   9]+0.167*[#  17]+0.167*[#  18]+0.073*[#   6]+
          +0.073*[#   7]+0.073*[#  15]+0.073*[#  16]+0.021*[#   5]+0.021*[#  14]+
    |psi|^2 = 1.000
==== e(   5) =   -31.27739 eV ==== 
     psi = 0.439*[#   5]+0.438*[#  14]+0.021*[#   8]+0.021*[#   9]+0.021*[#  17]+
          +0.021*[#  18]+0.009*[#   6]+0.009*[#   7]+0.009*[#  15]+0.009*[#  16]+
    |psi|^2 = 1.000
==== e(   6) =   -31.23341 eV ==== 
     psi = 0.142*[#   8]+0.142*[#   9]+0.142*[#  17]+0.142*[#  18]+0.103*[#   6]+
          +0.103*[#   7]+0.103*[#  15]+0.103*[#  16]+0.009*[#   5]+0.009*[#  14]+
    |psi|^2 = 1.000
==== e(   7) =   -31.22462 eV ==== 
     psi = 0.129*[#   8]+0.129*[#   9]+0.129*[#  17]+0.129*[#  18]+0.100*[#   6]+
          +0.100*[#   7]+0.100*[#  15]+0.100*[#  16]+0.040*[#   5]+0.040*[#  14]+
    |psi|^2 = 1.000
==== e(   8) =   -31.20275 eV ==== 
     psi = 0.468*[#   5]+0.468*[#  14]+0.014*[#   8]+0.014*[#   9]+0.014*[#  17]+
          +0.014*[#  18]+0.002*[#   6]+0.002*[#   7]+0.002*[#  15]+0.002*[#  16]+
    |psi|^2 = 1.000
==== e(   9) =   -31.17410 eV ==== 
     psi = 0.193*[#   6]+0.193*[#   7]+0.193*[#  15]+0.193*[#  16]+0.050*[#   8]+
          +0.050*[#   9]+0.050*[#  17]+0.050*[#  18]+0.014*[#   5]+0.014*[#  14]+
    |psi|^2 = 1.000
==== e(  10) =   -31.15271 eV ==== 
     psi = 0.189*[#   6]+0.189*[#   7]+0.189*[#  15]+0.189*[#  16]+0.061*[#   8]+
          +0.061*[#   9]+0.061*[#  17]+0.061*[#  18]+
    |psi|^2 = 1.000
==== e(  11) =   -13.44998 eV ==== 
     psi = 0.415*[#   1]+0.415*[#  10]+0.036*[#   2]+0.036*[#  11]+0.024*[#   3]+
          +0.024*[#   4]+0.024*[#  12]+0.024*[#  13]+
    |psi|^2 = 0.999
==== e(  12) =    -9.27973 eV ==== 
     psi = 0.418*[#   1]+0.418*[#  10]+0.071*[#   2]+0.071*[#  11]+0.005*[#   3]+
          +0.005*[#   4]+0.005*[#  12]+0.005*[#  13]+
    |psi|^2 = 0.998
==== e(  13) =    -4.97314 eV ==== 
     psi = 0.166*[#   3]+0.166*[#   4]+0.166*[#  12]+0.166*[#  13]+0.155*[#   2]+
          +0.155*[#  11]+0.006*[#   1]+0.006*[#  10]+
    |psi|^2 = 0.984
==== e(  14) =    -3.98837 eV ==== 
     psi = 0.234*[#   3]+0.234*[#   4]+0.234*[#  12]+0.234*[#  13]+0.015*[#   1]+
          +0.015*[#  10]+0.007*[#   2]+0.007*[#  11]+
    |psi|^2 = 0.984
==== e(  15) =    -3.30739 eV ==== 
     psi = 0.421*[#   2]+0.422*[#  11]+0.045*[#   1]+0.045*[#  10]+0.014*[#   3]+
          +0.014*[#   4]+0.014*[#  12]+0.014*[#  13]+
    |psi|^2 = 0.989
==== e(  16) =    -0.71781 eV ==== 
     psi = 0.216*[#   3]+0.216*[#   4]+0.216*[#  12]+0.216*[#  13]+0.024*[#   2]+
          +0.024*[#  11]+0.024*[#   1]+0.024*[#  10]+
    |psi|^2 = 0.961
==== e(  17) =    -0.26157 eV ==== 
     psi = 0.170*[#   3]+0.170*[#   4]+0.170*[#  12]+0.170*[#  13]+0.102*[#   2]+
          +0.102*[#  11]+0.036*[#   1]+0.036*[#  10]+
    |psi|^2 = 0.958
==== e(  18) =     0.73886 eV ==== 
     psi = 0.154*[#   2]+0.154*[#  11]+0.141*[#   3]+0.141*[#   4]+0.141*[#  12]+
          +0.141*[#  13]+0.035*[#   1]+0.035*[#  10]+
    |psi|^2 = 0.943
==== e(  19) =     1.86887 eV ==== 
     psi = 0.004*[#   3]+0.004*[#   4]+0.004*[#  12]+0.004*[#  13]+0.001*[#   2]+
          +0.001*[#  11]+0.001*[#   1]+0.001*[#  10]+
    |psi|^2 = 0.022

 k =   0.1234380848  0.3563350578  0.0000000000
==== e(   1) =   -31.37724 eV ==== 
     psi = 0.129*[#   6]+0.129*[#   7]+0.129*[#  15]+0.129*[#  16]+0.121*[#   8]+
          +0.121*[#   9]+0.121*[#  17]+0.121*[#  18]+
    |psi|^2 = 1.000
==== e(   2) =   -31.33725 eV ==== 
     psi = 0.151*[#   8]+0.151*[#   9]+0.151*[#  17]+0.151*[#  18]+0.098*[#   6]+
          +0.098*[#   7]+0.098*[#  15]+0.098*[#  16]+0.001*[#   5]+0.001*[#  14]+
    |psi|^2 = 1.000
==== e(   3) =   -31.31008 eV ==== 
     psi = 0.143*[#   8]+0.143*[#   9]+0.143*[#  17]+0.143*[#  18]+0.091*[#   6]+
          +0.091*[#   7]+0.091*[#  15]+0.091*[#  16]+0.031*[#   5]+0.031*[#  14]+
    |psi|^2 = 1.000
==== e(   4) =   -31.29509 eV ==== 
     psi = 0.137*[#   8]+0.137*[#   9]+0.137*[#  17]+0.137*[#  18]+0.085*[#   6]+
          +0.085*[#   7]+0.085*[#  15]+0.085*[#  16]+0.055*[#   5]+0.055*[#  14]+
    |psi|^2 = 1.000
==== e(   5) =   -31.26696 eV ==== 
     psi = 0.327*[#   5]+0.327*[#  14]+0.065*[#   8]+0.065*[#   9]+0.065*[#  17]+
          +0.065*[#  18]+0.021*[#   6]+0.021*[#   7]+0.021*[#  15]+0.021*[#  16]+
    |psi|^2 = 1.000
==== e(   6) =   -31.24612 eV ==== 
     psi = 0.146*[#   8]+0.146*[#   9]+0.146*[#  17]+0.146*[#  18]+0.092*[#   6]+
          +0.092*[#   7]+0.092*[#  15]+0.092*[#  16]+0.024*[#   5]+0.024*[#  14]+
    |psi|^2 = 1.000
==== e(   7) =   -31.22693 eV ==== 
     psi = 0.117*[#   5]+0.117*[#  14]+0.109*[#   8]+0.109*[#   9]+0.109*[#  17]+
          +0.109*[#  18]+0.083*[#   6]+0.083*[#   7]+0.083*[#  15]+0.083*[#  16]+
    |psi|^2 = 1.000
==== e(   8) =   -31.21278 eV ==== 
     psi = 0.297*[#  14]+0.297*[#   5]+0.055*[#   8]+0.055*[#   9]+0.055*[#  17]+
          +0.055*[#  18]+0.046*[#   6]+0.046*[#   7]+0.046*[#  15]+0.046*[#  16]+
    |psi|^2 = 1.000
==== e(   9) =   -31.19583 eV ==== 
     psi = 0.164*[#   6]+0.164*[#   7]+0.164*[#  15]+0.164*[#  16]+0.147*[#   5]+
          +0.147*[#  14]+0.013*[#   8]+0.013*[#   9]+0.013*[#  17]+0.013*[#  18]+
    |psi|^2 = 1.000
==== e(  10) =   -31.15430 eV ==== 
     psi = 0.191*[#   6]+0.191*[#   7]+0.191*[#  15]+0.191*[#  16]+0.059*[#   8]+
          +0.059*[#   9]+0.059*[#  17]+0.059*[#  18]+
    |psi|^2 = 1.000
==== e(  11) =   -12.86199 eV ==== 
     psi = 0.402*[#   1]+0.402*[#  10]+0.036*[#   3]+0.036*[#   4]+0.036*[#  12]+
          +0.036*[#  13]+0.026*[#   2]+0.026*[#  11]+
    |psi|^2 = 0.998
==== e(  12) =    -9.72084 eV ==== 
     psi = 0.435*[#   1]+0.435*[#  10]+0.022*[#   3]+0.022*[#   4]+0.022*[#  12]+
          +0.022*[#  13]+0.019*[#   2]+0.019*[#  11]+
    |psi|^2 = 0.996
==== e(  13) =    -5.57922 eV ==== 
     psi = 0.182*[#   2]+0.182*[#  11]+0.151*[#   3]+0.151*[#   4]+0.151*[#  12]+
          +0.151*[#  13]+0.010*[#   1]+0.010*[#  10]+
    |psi|^2 = 0.989
==== e(  14) =    -4.72617 eV ==== 
     psi = 0.224*[#   3]+0.224*[#   4]+0.224*[#  12]+0.224*[#  13]+0.028*[#   2]+
          +0.028*[#  11]+0.016*[#   1]+0.016*[#  10]+
    |psi|^2 = 0.987
==== e(  15) =    -3.51630 eV ==== 
     psi = 0.350*[#   2]+0.350*[#  11]+0.056*[#   1]+0.056*[#  10]+0.045*[#   3]+
          +0.045*[#   4]+0.045*[#  12]+0.045*[#  13]+
    |psi|^2 = 0.994
==== e(  16) =    -0.97272 eV ==== 
     psi = 0.169*[#   3]+0.169*[#   4]+0.169*[#  12]+0.169*[#  13]+0.114*[#   2]+
          +0.114*[#  11]+0.024*[#   1]+0.024*[#  10]+
    |psi|^2 = 0.953
==== e(  17) =     0.04277 eV ==== 
     psi = 0.231*[#   3]+0.231*[#   4]+0.231*[#  12]+0.231*[#  13]+0.007*[#   2]+
          +0.007*[#  11]+0.004*[#   1]+0.004*[#  10]+
    |psi|^2 = 0.948
==== e(  18) =     0.55502 eV ==== 
     psi = 0.221*[#   2]+0.221*[#  11]+0.084*[#   3]+0.084*[#   4]+0.084*[#  12]+
          +0.084*[#  13]+0.041*[#   1]+0.041*[#  10]+
    |psi|^2 = 0.862
==== e(  19) =     2.43803 eV ==== 
     psi = 0.007*[#   2]+0.007*[#  11]+
    |psi|^2 = 0.018

 k =   0.1234380848  0.4988690809  0.0000000000
==== e(   1) =   -31.37565 eV ==== 
     psi = 0.126*[#   6]+0.126*[#   7]+0.126*[#  15]+0.126*[#  16]+0.123*[#   8]+
          +0.123*[#   9]+0.123*[#  17]+0.123*[#  18]+
    |psi|^2 = 1.000
==== e(   2) =   -31.32025 eV ==== 
     psi = 0.220*[#   8]+0.220*[#   9]+0.220*[#  17]+0.220*[#  18]+0.028*[#   5]+
          +0.028*[#  14]+0.015*[#   6]+0.015*[#   7]+0.015*[#  15]+0.015*[#  16]+
    |psi|^2 = 1.000
==== e(   3) =   -31.29692 eV ==== 
     psi = 0.184*[#   6]+0.184*[#   7]+0.184*[#  15]+0.184*[#  16]+0.045*[#   8]+
          +0.045*[#   9]+0.045*[#  17]+0.045*[#  18]+0.040*[#   5]+0.040*[#  14]+
    |psi|^2 = 1.000
==== e(   4) =   -31.27980 eV ==== 
     psi = 0.131*[#   8]+0.131*[#   9]+0.131*[#  17]+0.131*[#  18]+0.086*[#   6]+
          +0.086*[#   7]+0.086*[#  15]+0.086*[#  16]+0.065*[#   5]+0.065*[#  14]+
    |psi|^2 = 1.000
==== e(   5) =   -31.26343 eV ==== 
     psi = 0.158*[#   8]+0.158*[#   9]+0.158*[#  17]+0.158*[#  18]+0.073*[#   6]+
          +0.073*[#   7]+0.073*[#  15]+0.073*[#  16]+0.037*[#   5]+0.037*[#  14]+
    |psi|^2 = 1.000
==== e(   6) =   -31.25520 eV ==== 
     psi = 0.151*[#   8]+0.151*[#   9]+0.151*[#  17]+0.151*[#  18]+0.128*[#   5]+
          +0.128*[#  14]+0.035*[#   6]+0.035*[#   7]+0.035*[#  15]+0.035*[#  16]+
    |psi|^2 = 1.000
==== e(   7) =   -31.23628 eV ==== 
     psi = 0.136*[#   6]+0.136*[#   7]+0.136*[#  15]+0.136*[#  16]+0.115*[#   5]+
          +0.114*[#  14]+0.056*[#   8]+0.056*[#   9]+0.056*[#  17]+0.056*[#  18]+
    |psi|^2 = 1.000
==== e(   8) =   -31.23275 eV ==== 
     psi = 0.305*[#  14]+0.304*[#   5]+0.057*[#  15]+0.057*[#  16]+0.057*[#   6]+
          +0.057*[#   7]+0.041*[#   8]+0.041*[#   9]+0.041*[#  17]+0.041*[#  18]+
    |psi|^2 = 1.000
==== e(   9) =   -31.20460 eV ==== 
     psi = 0.282*[#   5]+0.282*[#  14]+0.094*[#   6]+0.094*[#   7]+0.094*[#  15]+
          +0.094*[#  16]+0.015*[#   8]+0.015*[#   9]+0.015*[#  17]+0.015*[#  18]+
    |psi|^2 = 1.000
==== e(  10) =   -31.15549 eV ==== 
     psi = 0.192*[#   6]+0.192*[#   7]+0.192*[#  15]+0.192*[#  16]+0.058*[#   8]+
          +0.058*[#   9]+0.058*[#  17]+0.058*[#  18]+
    |psi|^2 = 1.000
==== e(  11) =   -12.14939 eV ==== 
     psi = 0.414*[#   1]+0.414*[#  10]+0.035*[#   3]+0.035*[#   4]+0.035*[#  12]+
          +0.035*[#  13]+0.015*[#   2]+0.015*[#  11]+
    |psi|^2 = 0.998
==== e(  12) =   -10.46273 eV ==== 
     psi = 0.404*[#   1]+0.404*[#  10]+0.047*[#   3]+0.047*[#   4]+0.047*[#  12]+
          +0.047*[#  13]+
    |psi|^2 = 0.996
==== e(  13) =    -5.75344 eV ==== 
     psi = 0.162*[#   3]+0.162*[#   4]+0.162*[#  12]+0.162*[#  13]+0.120*[#   2]+
          +0.120*[#  11]+0.051*[#   1]+0.051*[#  10]+
    |psi|^2 = 0.992
==== e(  14) =    -4.84090 eV ==== 
     psi = 0.189*[#   3]+0.189*[#   4]+0.189*[#  12]+0.189*[#  13]+0.107*[#   2]+
          +0.107*[#  11]+0.009*[#   1]+0.009*[#  10]+
    |psi|^2 = 0.990
==== e(  15) =    -4.09759 eV ==== 
     psi = 0.272*[#   2]+0.272*[#  11]+0.084*[#   3]+0.084*[#   4]+0.084*[#  12]+
          +0.084*[#  13]+0.059*[#   1]+0.059*[#  10]+
    |psi|^2 = 0.995
==== e(  16) =    -0.77260 eV ==== 
     psi = 0.162*[#   2]+0.162*[#  11]+0.146*[#   3]+0.146*[#   4]+0.146*[#  12]+
          +0.146*[#  13]+0.015*[#   1]+0.015*[#  10]+
    |psi|^2 = 0.938
==== e(  17) =    -0.25790 eV ==== 
     psi = 0.163*[#   2]+0.163*[#  11]+0.133*[#   3]+0.133*[#   4]+0.133*[#  12]+
          +0.133*[#  13]+0.022*[#   1]+0.022*[#  10]+
    |psi|^2 = 0.905
==== e(  18) =     0.37403 eV ==== 
     psi = 0.168*[#   3]+0.168*[#   4]+0.168*[#  12]+0.168*[#  13]+0.103*[#   2]+
          +0.103*[#  11]+0.015*[#   1]+0.015*[#  10]+
    |psi|^2 = 0.908
==== e(  19) =     2.54429 eV ==== 
     psi = 0.011*[#   2]+0.011*[#  11]+0.006*[#   3]+0.006*[#   4]+0.006*[#  12]+
          +0.006*[#  13]+
    |psi|^2 = 0.047

 k =   0.2468761697  0.4276020693  0.0000000000
==== e(   1) =   -31.37589 eV ==== 
     psi = 0.128*[#   8]+0.128*[#   9]+0.128*[#  17]+0.128*[#  18]+0.122*[#   6]+
          +0.122*[#   7]+0.122*[#  15]+0.122*[#  16]+
    |psi|^2 = 1.000
==== e(   2) =   -31.31256 eV ==== 
     psi = 0.188*[#   8]+0.188*[#   9]+0.188*[#  17]+0.188*[#  18]+0.057*[#   6]+
          +0.057*[#   7]+0.057*[#  15]+0.057*[#  16]+0.009*[#   5]+0.009*[#  14]+
    |psi|^2 = 1.000
==== e(   3) =   -31.30272 eV ==== 
     psi = 0.156*[#   8]+0.156*[#   9]+0.156*[#  17]+0.156*[#  18]+0.083*[#   6]+
          +0.083*[#   7]+0.083*[#  15]+0.083*[#  16]+0.022*[#   5]+0.022*[#  14]+
    |psi|^2 = 1.000
==== e(   4) =   -31.28751 eV ==== 
     psi = 0.141*[#   6]+0.141*[#   7]+0.141*[#  15]+0.141*[#  16]+0.121*[#   5]+
          +0.121*[#  14]+0.049*[#   8]+0.049*[#   9]+0.049*[#  17]+0.049*[#  18]+
    |psi|^2 = 1.000
==== e(   5) =   -31.26313 eV ==== 
     psi = 0.156*[#   8]+0.156*[#   9]+0.156*[#  17]+0.156*[#  18]+0.072*[#   6]+
          +0.072*[#   7]+0.072*[#  15]+0.072*[#  16]+0.044*[#   5]+0.044*[#  14]+
    |psi|^2 = 1.000
==== e(   6) =   -31.25395 eV ==== 
     psi = 0.169*[#   5]+0.169*[#  14]+0.128*[#   8]+0.128*[#   9]+0.128*[#  17]+
          +0.128*[#  18]+0.038*[#   6]+0.038*[#   7]+0.038*[#  15]+0.038*[#  16]+
    |psi|^2 = 1.000
==== e(   7) =   -31.23381 eV ==== 
     psi = 0.140*[#   6]+0.140*[#   7]+0.140*[#  15]+0.140*[#  16]+0.109*[#   5]+
          +0.109*[#  14]+0.055*[#   8]+0.055*[#   9]+0.055*[#  17]+0.055*[#  18]+
    |psi|^2 = 1.000
==== e(   8) =   -31.22623 eV ==== 
     psi = 0.202*[#   5]+0.202*[#  14]+0.079*[#   8]+0.079*[#   9]+0.079*[#  17]+
          +0.079*[#  18]+0.070*[#   6]+0.070*[#   7]+0.070*[#  15]+0.070*[#  16]+
    |psi|^2 = 1.000
==== e(   9) =   -31.20818 eV ==== 
     psi = 0.324*[#   5]+0.324*[#  14]+0.083*[#   6]+0.083*[#   7]+0.083*[#  15]+
          +0.083*[#  16]+0.005*[#   8]+0.005*[#   9]+0.005*[#  17]+0.005*[#  18]+
    |psi|^2 = 1.000
==== e(  10) =   -31.15646 eV ==== 
     psi = 0.194*[#   6]+0.194*[#   7]+0.194*[#  15]+0.194*[#  16]+0.056*[#   8]+
          +0.056*[#   9]+0.056*[#  17]+0.056*[#  18]+
    |psi|^2 = 1.000
==== e(  11) =   -12.19402 eV ==== 
     psi = 0.403*[#   1]+0.403*[#  10]+0.040*[#   3]+0.040*[#   4]+0.040*[#  12]+
          +0.040*[#  13]+0.015*[#   2]+0.015*[#  11]+
    |psi|^2 = 0.998
==== e(  12) =   -10.34709 eV ==== 
     psi = 0.427*[#   1]+0.427*[#  10]+0.035*[#   3]+0.035*[#   4]+0.035*[#  12]+
          +0.035*[#  13]+0.001*[#   2]+0.001*[#  11]+
    |psi|^2 = 0.996
==== e(  13) =    -5.75144 eV ==== 
     psi = 0.238*[#   3]+0.238*[#   4]+0.238*[#  12]+0.238*[#  13]+0.014*[#   1]+
          +0.014*[#  10]+0.002*[#   2]+0.002*[#  11]+
    |psi|^2 = 0.988
==== e(  14) =    -5.26160 eV ==== 
     psi = 0.237*[#   2]+0.237*[#  11]+0.115*[#   3]+0.115*[#   4]+0.115*[#  12]+
          +0.115*[#  13]+0.028*[#   1]+0.028*[#  10]+
    |psi|^2 = 0.993
==== e(  15) =    -3.91101 eV ==== 
     psi = 0.307*[#   2]+0.307*[#  11]+0.065*[#   3]+0.065*[#   4]+0.065*[#  12]+
          +0.065*[#  13]+0.060*[#   1]+0.060*[#  10]+
    |psi|^2 = 0.996
==== e(  16) =    -0.84145 eV ==== 
     psi = 0.234*[#   3]+0.234*[#   4]+0.234*[#  12]+0.234*[#  13]+0.004*[#   2]+
          +0.004*[#  11]+
    |psi|^2 = 0.947
==== e(  17) =    -0.14397 eV ==== 
     psi = 0.157*[#   2]+0.157*[#  11]+0.141*[#   3]+0.141*[#   4]+0.141*[#  12]+
          +0.141*[#  13]+0.020*[#   1]+0.020*[#  10]+
    |psi|^2 = 0.918
==== e(  18) =     0.86980 eV ==== 
     psi = 0.244*[#   2]+0.244*[#  11]+0.100*[#   3]+0.100*[#   4]+0.100*[#  12]+
          +0.100*[#  13]+0.040*[#   1]+0.040*[#  10]+
    |psi|^2 = 0.967
==== e(  19) =     3.23078 eV ==== 
     psi = 0.005*[#   3]+0.005*[#   4]+0.005*[#  12]+0.005*[#  13]+0.003*[#   2]+
          +0.003*[#  11]+
    |psi|^2 = 0.029

 k =   0.2468761697  0.5701360925  0.0000000000
==== e(   1) =   -31.37529 eV ==== 
     psi = 0.131*[#   8]+0.131*[#   9]+0.131*[#  17]+0.131*[#  18]+0.119*[#   6]+
          +0.119*[#   7]+0.119*[#  15]+0.119*[#  16]+
    |psi|^2 = 1.000
==== e(   2) =   -31.30352 eV ==== 
     psi = 0.200*[#   8]+0.200*[#   9]+0.200*[#  17]+0.200*[#  18]+0.038*[#   5]+
          +0.038*[#  14]+0.031*[#   6]+0.031*[#   7]+0.031*[#  15]+0.031*[#  16]+
    |psi|^2 = 1.000
==== e(   3) =   -31.28619 eV ==== 
     psi = 0.129*[#   8]+0.129*[#   9]+0.129*[#  17]+0.129*[#  18]+0.121*[#   6]+
          +0.121*[#   7]+0.121*[#  15]+0.121*[#  16]+
    |psi|^2 = 1.000
==== e(   4) =   -31.28245 eV ==== 
     psi = 0.204*[#  17]+0.204*[#  18]+0.204*[#   8]+0.204*[#   9]+0.070*[#   5]+
          +0.069*[#  14]+0.011*[#   6]+0.011*[#   7]+0.011*[#  15]+0.011*[#  16]+
    |psi|^2 = 1.000
==== e(   5) =   -31.27461 eV ==== 
     psi = 0.178*[#   6]+0.178*[#   7]+0.178*[#  15]+0.178*[#  16]+0.113*[#   5]+
          +0.113*[#  14]+0.015*[#   8]+0.015*[#   9]+0.015*[#  17]+0.015*[#  18]+
    |psi|^2 = 1.000
==== e(   6) =   -31.25401 eV ==== 
     psi = 0.165*[#   6]+0.165*[#   7]+0.165*[#  15]+0.165*[#  16]+0.061*[#   5]+
          +0.061*[#  14]+0.054*[#   8]+0.054*[#   9]+0.054*[#  17]+0.054*[#  18]+
    |psi|^2 = 1.000
==== e(   7) =   -31.24630 eV ==== 
     psi = 0.167*[#   8]+0.167*[#   9]+0.167*[#  17]+0.167*[#  18]+0.061*[#   6]+
          +0.061*[#   7]+0.061*[#  15]+0.061*[#  16]+0.045*[#   5]+0.045*[#  14]+
    |psi|^2 = 1.000
==== e(   8) =   -31.22612 eV ==== 
     psi = 0.348*[#   5]+0.348*[#  14]+0.051*[#   6]+0.051*[#   7]+0.051*[#  15]+
          +0.051*[#  16]+0.025*[#   8]+0.025*[#   9]+0.025*[#  17]+0.025*[#  18]+
    |psi|^2 = 1.000
==== e(   9) =   -31.21358 eV ==== 
     psi = 0.325*[#  14]+0.325*[#   5]+0.068*[#   6]+0.068*[#   7]+0.068*[#  15]+
          +0.068*[#  16]+0.020*[#   8]+0.020*[#   9]+0.020*[#  17]+0.020*[#  18]+
    |psi|^2 = 1.000
==== e(  10) =   -31.15748 eV ==== 
     psi = 0.195*[#   6]+0.195*[#   7]+0.195*[#  15]+0.195*[#  16]+0.054*[#   8]+
          +0.054*[#   9]+0.054*[#  17]+0.054*[#  18]+
    |psi|^2 = 1.000
==== e(  11) =   -11.61795 eV ==== 
     psi = 0.415*[#   1]+0.415*[#  10]+0.038*[#   3]+0.038*[#   4]+0.038*[#  12]+
          +0.038*[#  13]+0.008*[#   2]+0.008*[#  11]+
    |psi|^2 = 0.997
==== e(  12) =   -10.91919 eV ==== 
     psi = 0.410*[#   1]+0.410*[#  10]+0.044*[#   3]+0.044*[#   4]+0.044*[#  12]+
          +0.044*[#  13]+
    |psi|^2 = 0.997
==== e(  13) =    -6.09785 eV ==== 
     psi = 0.239*[#   3]+0.239*[#   4]+0.239*[#  12]+0.239*[#  13]+0.009*[#   1]+
          +0.009*[#  10]+0.006*[#   2]+0.006*[#  11]+
    |psi|^2 = 0.989
==== e(  14) =    -4.84367 eV ==== 
     psi = 0.250*[#   2]+0.250*[#  11]+0.102*[#   3]+0.102*[#   4]+0.102*[#  12]+
          +0.102*[#  13]+0.044*[#   1]+0.044*[#  10]+
    |psi|^2 = 0.995
==== e(  15) =    -4.37492 eV ==== 
     psi = 0.277*[#   2]+0.277*[#  11]+0.081*[#   3]+0.081*[#   4]+0.081*[#  12]+
          +0.081*[#  13]+0.059*[#   1]+0.059*[#  10]+
    |psi|^2 = 0.996
==== e(  16) =    -1.16192 eV ==== 
     psi = 0.232*[#   3]+0.232*[#   4]+0.232*[#  12]+0.232*[#  13]+0.012*[#   2]+
          +0.012*[#  11]+
    |psi|^2 = 0.953
==== e(  17) =     0.44883 eV ==== 
     psi = 0.183*[#   2]+0.183*[#  11]+0.126*[#   3]+0.126*[#   4]+0.126*[#  12]+
          +0.126*[#  13]+0.021*[#   1]+0.021*[#  10]+
    |psi|^2 = 0.910
==== e(  18) =     0.58861 eV ==== 
     psi = 0.225*[#   2]+0.225*[#  11]+0.107*[#   3]+0.107*[#   4]+0.107*[#  12]+
          +0.107*[#  13]+0.032*[#   1]+0.032*[#  10]+
    |psi|^2 = 0.942
==== e(  19) =     3.38070 eV ==== 
     psi = 0.002*[#   2]+0.002*[#  11]+0.001*[#   1]+0.001*[#   3]+0.001*[#   4]+
          +0.001*[#  10]+0.001*[#  12]+0.001*[#  13]+
    |psi|^2 = 0.012

Lowdin Charges: 

           1           1   1.84177497384024        3.12397333908384     
   9.99831909601107     
     Atom #   1: total charge =  14.9641, s =  1.8418, 
     Atom #   1: total charge =  14.9641, p =  3.1240, pz=  1.1634, px=  0.9803, py=  0.9803, 
     Atom #   1: total charge =  14.9641, d =  9.9983, dz2=  1.9999, dxz=  1.9995, dyz=  1.9995, dx2-y2=  1.9997, dxy=  1.9997, 
           1           1   1.84177476069350        3.12397244177428     
   9.99831909704366     
     Atom #   2: total charge =  14.9641, s =  1.8418, 
     Atom #   2: total charge =  14.9641, p =  3.1240, pz=  1.1634, px=  0.9803, py=  0.9803, 
     Atom #   2: total charge =  14.9641, d =  9.9983, dz2=  1.9999, dxz=  1.9995, dyz=  1.9995, dx2-y2=  1.9997, dxy=  1.9997, 
     Spilling Parameter:   0.0024
 
     PROJWFC      :      8.87s CPU     26.54s WALL

 
   This run was terminated on:   4:48:10  24Jan2020            

=------------------------------------------------------------------------------=
   JOB DONE.
=------------------------------------------------------------------------------=
