
     Program PWSCF v.6.4.1 starts on 29Oct2019 at  0:44:40 

     This program is part of the open-source Quantum ESPRESSO suite
     for quantum simulation of materials; please cite
         "P. Giannozzi et al., J. Phys.:Condens. Matter 21 395502 (2009);
         "P. Giannozzi et al., J. Phys.:Condens. Matter 29 465901 (2017);
          URL http://www.quantum-espresso.org", 
     in publications or presentations arising from this work. More details at
     http://www.quantum-espresso.org/quote

     Parallel version (MPI), running on     2 processors

     MPI processes distributed on     1 nodes
     R & G space division:  proc/nbgrp/npool/nimage =       2
     Reading input from antimonene_B.2_scf.in

     Current dimensions of program PWSCF are:
     Max number of different atomic species (ntypx) = 10
     Max number of k-points (npk) =  40000
     Max angular momentum in pseudopotentials (lmaxx) =  3
               file Sb.pbe-dn-kjpaw_psl.1.0.0.UPF: wavefunction(s)  5S 4D renormalized

     Subspace diagonalization in iterative solution of the eigenvalue problem:
     a serial algorithm will be used

     Message from routine setup:
     DEPRECATED: symmetry with ibrav=0, use correct ibrav instead
 
     Parallelization info
     --------------------
     sticks:   dense  smooth     PW     G-vecs:    dense   smooth      PW
     Min         423     402    117                72853    66418   10064
     Max         424     403    118                72896    66441   10067
     Sum         847     805    235               145749   132859   20131
 


     bravais-lattice index     =            0
     lattice parameter (alat)  =       7.7857  a.u.
     unit-cell volume          =    3051.8600 (a.u.)^3
     number of atoms/cell      =            2
     number of atomic types    =            1
     number of electrons       =        30.00
     number of Kohn-Sham states=           19
     kinetic-energy cutoff     =      47.0000  Ry
     charge density cutoff     =     200.0000  Ry
     convergence threshold     =      1.0E-10
     mixing beta               =       0.3000
     number of iterations used =            8  plain     mixing
     Exchange-correlation      = SLA PW PBX PBC ( 1  4  3  4 0 0)

     celldm(1)=   7.785672  celldm(2)=   0.000000  celldm(3)=   0.000000
     celldm(4)=   0.000000  celldm(5)=   0.000000  celldm(6)=   0.000000

     crystal axes: (cart. coord. in units of alat)
               a(1) = (   1.012653   0.000000   0.000000 )  
               a(2) = (  -0.506327   0.876984   0.000000 )  
               a(3) = (   0.000000   0.000000   7.281553 )  

     reciprocal axes: (cart. coord. in units 2 pi/alat)
               b(1) = (  0.987505  0.570136  0.000000 )  
               b(2) = (  0.000000  1.140272  0.000000 )  
               b(3) = (  0.000000  0.000000  0.137333 )  


     PseudoPot. # 1 for Sb read from file:
     /home/latifah/quantumEspresso_2019/pslibrary.1.0.0/Sb.pbe-dn-kjpaw_psl.1.0.0.UPF
     MD5 check sum: 2f07ff22ac188143f4ca0c2e47e96dbe
     Pseudo is Projector augmented-wave + core cor, Zval = 15.0
     Generated using "atomic" code by A. Dal Corso v.6.4.1
     Shape of augmentation charge: PSQ
     Using radial grid of 1243 points,  6 beta functions with: 
                l(1) =   0
                l(2) =   0
                l(3) =   1
                l(4) =   1
                l(5) =   2
                l(6) =   2
     Q(r) pseudized with 0 coefficients 


     atomic species   valence    mass     pseudopotential
        Sb            15.00   121.76000     Sb( 1.00)

      6 Sym. Ops. (no inversion) found



   Cartesian axes

     site n.     atom                  positions (alat units)
         1           Sb  tau(   1) = (  -0.0000000   0.5846557   0.0000000  )
         2           Sb  tau(   2) = (   0.5063267   0.2923279   0.4004854  )

     number of k points=     4  Marzari-Vanderbilt smearing, width (Ry)=  0.0001
                       cart. coord. in units 2pi/alat
        k(    1) = (   0.0000000   0.0000000   0.0000000), wk =   0.1250000
        k(    2) = (   0.0000000   0.2850680   0.0000000), wk =   0.7500000
        k(    3) = (   0.0000000  -0.5701361   0.0000000), wk =   0.3750000
        k(    4) = (   0.2468762   0.4276021   0.0000000), wk =   0.7500000

     Dense  grid:   145749 G-vectors     FFT dimensions: (  36,  36, 256)

     Smooth grid:   132859 G-vectors     FFT dimensions: (  36,  36, 250)

     Estimated max dynamical RAM per process >     268.63 MB

     Estimated total dynamical RAM >     537.25 MB

     Check: negative core charge=   -0.000003

     Initial potential from superposition of free atoms

     starting charge   29.99875, renormalised to   30.00000

     negative rho (up, down):  1.585E-03 0.000E+00
     Starting wfcs are   18 randomized atomic wfcs +    1 random wfcs
     Checking if some PAW data can be deallocated... 

     total cpu time spent up to now is       14.9 secs

     Self-consistent Calculation

     iteration #  1     ecut=    47.00 Ry     beta= 0.30
     Davidson diagonalization with overlap
     ethr =  1.00E-02,  avg # of iterations =  5.0

     Threshold (ethr) on eigenvalues was too large:
     Diagonalizing with lowered threshold

     Davidson diagonalization with overlap
     ethr =  6.50E-05,  avg # of iterations =  5.5

     negative rho (up, down):  1.726E-03 0.000E+00

     total cpu time spent up to now is       45.4 secs

     total energy              =    -951.64186441 Ry
     Harris-Foulkes estimate   =    -951.64400487 Ry
     estimated scf accuracy    <       0.01941866 Ry

     iteration #  2     ecut=    47.00 Ry     beta= 0.30
     Davidson diagonalization with overlap
     ethr =  6.47E-05,  avg # of iterations =  1.0

     negative rho (up, down):  1.849E-03 0.000E+00

     total cpu time spent up to now is       58.8 secs

     total energy              =    -951.64066809 Ry
     Harris-Foulkes estimate   =    -951.64207458 Ry
     estimated scf accuracy    <       0.00841788 Ry

     iteration #  3     ecut=    47.00 Ry     beta= 0.30
     Davidson diagonalization with overlap
     ethr =  2.81E-05,  avg # of iterations =  5.0

     negative rho (up, down):  1.908E-03 0.000E+00

     total cpu time spent up to now is       69.2 secs

     total energy              =    -951.64122835 Ry
     Harris-Foulkes estimate   =    -951.64135382 Ry
     estimated scf accuracy    <       0.00054676 Ry

     iteration #  4     ecut=    47.00 Ry     beta= 0.30
     Davidson diagonalization with overlap
     ethr =  1.82E-06,  avg # of iterations =  7.0

     negative rho (up, down):  1.935E-03 0.000E+00

     total cpu time spent up to now is       84.5 secs

     total energy              =    -951.64126391 Ry
     Harris-Foulkes estimate   =    -951.64131120 Ry
     estimated scf accuracy    <       0.00021948 Ry

     iteration #  5     ecut=    47.00 Ry     beta= 0.30
     Davidson diagonalization with overlap
     ethr =  7.32E-07,  avg # of iterations =  4.0

     negative rho (up, down):  1.970E-03 0.000E+00

     total cpu time spent up to now is       98.5 secs

     total energy              =    -951.64131251 Ry
     Harris-Foulkes estimate   =    -951.64132975 Ry
     estimated scf accuracy    <       0.00007303 Ry

     iteration #  6     ecut=    47.00 Ry     beta= 0.30
     Davidson diagonalization with overlap
     ethr =  2.43E-07,  avg # of iterations =  2.0

     negative rho (up, down):  1.992E-03 0.000E+00

     total cpu time spent up to now is      109.0 secs

     total energy              =    -951.64130524 Ry
     Harris-Foulkes estimate   =    -951.64131556 Ry
     estimated scf accuracy    <       0.00002542 Ry

     iteration #  7     ecut=    47.00 Ry     beta= 0.30
     Davidson diagonalization with overlap
     ethr =  8.47E-08,  avg # of iterations =  3.0

     negative rho (up, down):  2.006E-03 0.000E+00

     total cpu time spent up to now is      121.4 secs

     total energy              =    -951.64131315 Ry
     Harris-Foulkes estimate   =    -951.64131752 Ry
     estimated scf accuracy    <       0.00001003 Ry

     iteration #  8     ecut=    47.00 Ry     beta= 0.30
     Davidson diagonalization with overlap
     ethr =  3.34E-08,  avg # of iterations =  2.0

     negative rho (up, down):  2.016E-03 0.000E+00

     total cpu time spent up to now is      133.7 secs

     total energy              =    -951.64131373 Ry
     Harris-Foulkes estimate   =    -951.64131418 Ry
     estimated scf accuracy    <       0.00000095 Ry

     iteration #  9     ecut=    47.00 Ry     beta= 0.30
     Davidson diagonalization with overlap
     ethr =  3.18E-09,  avg # of iterations =  2.2

     negative rho (up, down):  2.023E-03 0.000E+00

     total cpu time spent up to now is      147.5 secs

     total energy              =    -951.64131392 Ry
     Harris-Foulkes estimate   =    -951.64131392 Ry
     estimated scf accuracy    <       0.00000002 Ry

     iteration # 10     ecut=    47.00 Ry     beta= 0.30
     Davidson diagonalization with overlap
     ethr =  8.12E-11,  avg # of iterations =  2.0

     negative rho (up, down):  2.029E-03 0.000E+00

     total cpu time spent up to now is      160.1 secs

     total energy              =    -951.64131393 Ry
     Harris-Foulkes estimate   =    -951.64131393 Ry
     estimated scf accuracy    <          8.8E-09 Ry

     iteration # 11     ecut=    47.00 Ry     beta= 0.30
     Davidson diagonalization with overlap
     ethr =  2.95E-11,  avg # of iterations =  2.2

     negative rho (up, down):  2.033E-03 0.000E+00

     total cpu time spent up to now is      170.5 secs

     total energy              =    -951.64131392 Ry
     Harris-Foulkes estimate   =    -951.64131393 Ry
     estimated scf accuracy    <          2.0E-09 Ry

     iteration # 12     ecut=    47.00 Ry     beta= 0.30
     Davidson diagonalization with overlap
     ethr =  6.51E-12,  avg # of iterations =  2.0

     negative rho (up, down):  2.035E-03 0.000E+00

     total cpu time spent up to now is      182.1 secs

     total energy              =    -951.64131392 Ry
     Harris-Foulkes estimate   =    -951.64131392 Ry
     estimated scf accuracy    <          3.2E-10 Ry

     iteration # 13     ecut=    47.00 Ry     beta= 0.30
     Davidson diagonalization with overlap
     ethr =  1.06E-12,  avg # of iterations =  2.0

     negative rho (up, down):  2.042E-03 0.000E+00

     total cpu time spent up to now is      192.0 secs

     End of self-consistent calculation

          k = 0.0000 0.0000 0.0000 ( 16665 PWs)   bands (ev):

   -31.3817 -31.3817 -31.3174 -31.3174 -31.2842 -31.2237 -31.2237 -31.1972
   -31.1513 -31.1513 -13.9188  -9.1608  -3.4098  -2.8910  -2.8910  -1.4124
    -0.1583  -0.1583   1.3243

          k = 0.0000 0.2851 0.0000 ( 16607 PWs)   bands (ev):

   -31.3786 -31.3549 -31.3144 -31.3013 -31.2754 -31.2356 -31.2264 -31.2046
   -31.1808 -31.1529 -13.2995  -9.3754  -5.3580  -3.7864  -3.3927  -1.5102
     0.4981   0.5127   1.9384

          k = 0.0000-0.5701 0.0000 ( 16586 PWs)   bands (ev):

   -31.3754 -31.3248 -31.2940 -31.2666 -31.2663 -31.2593 -31.2395 -31.2378
   -31.2022 -31.1546 -12.0999 -10.5790  -5.7161  -4.3637  -4.2694  -1.2314
    -0.4178   0.5845   2.2461

          k = 0.2469 0.4276 0.0000 ( 16601 PWs)   bands (ev):

   -31.3759 -31.3126 -31.3027 -31.2875 -31.2632 -31.2540 -31.2338 -31.2262
   -31.2082 -31.1565 -12.1940 -10.3471  -5.7515  -5.2616  -3.9110  -0.8415
    -0.1440   0.8698   3.2307

     the Fermi energy is    -2.1756 ev

!    total energy              =    -951.64131391 Ry
     Harris-Foulkes estimate   =    -951.64131392 Ry
     estimated scf accuracy    <          1.1E-11 Ry

     total all-electron energy =    -25926.373496 Ry

     The total energy is the sum of the following terms:

     one-electron contribution =   -1733.47736762 Ry
     hartree contribution      =     873.59834423 Ry
     xc contribution           =     -99.42152503 Ry
     ewald contribution        =     588.62826597 Ry
     one-center paw contrib.   =    -580.96903147 Ry
     smearing contrib. (-TS)   =       0.00000000 Ry

     convergence has been achieved in  13 iterations

     Writing output data file antimonene_B.save/
 
     init_run     :      3.35s CPU      7.59s WALL (       1 calls)
     electrons    :     66.28s CPU    177.28s WALL (       1 calls)

     Called by init_run:
     wfcinit      :      1.07s CPU      2.66s WALL (       1 calls)
     potinit      :      0.89s CPU      1.80s WALL (       1 calls)
     hinit0       :      0.93s CPU      2.00s WALL (       1 calls)

     Called by electrons:
     c_bands      :     40.56s CPU    104.90s WALL (      14 calls)
     sum_band     :     12.31s CPU     36.45s WALL (      14 calls)
     v_of_rho     :      2.78s CPU      6.85s WALL (      14 calls)
     newd         :      3.67s CPU     11.69s WALL (      14 calls)
     PAW_pot      :      3.83s CPU      9.36s WALL (      14 calls)
     mix_rho      :      3.13s CPU      7.83s WALL (      14 calls)

     Called by c_bands:
     init_us_2    :      0.51s CPU      1.20s WALL (     116 calls)
     cegterg      :     37.83s CPU     97.98s WALL (      56 calls)

     Called by sum_band:
     sum_band:bec :      0.00s CPU      0.00s WALL (      56 calls)
     addusdens    :      4.35s CPU     15.62s WALL (      14 calls)

     Called by *egterg:
     h_psi        :     30.76s CPU     79.02s WALL (     240 calls)
     s_psi        :      0.76s CPU      1.95s WALL (     240 calls)
     g_psi        :      0.12s CPU      0.31s WALL (     180 calls)
     cdiaghg      :      2.05s CPU      5.37s WALL (     232 calls)

     Called by h_psi:
     h_psi:pot    :     30.63s CPU     78.77s WALL (     240 calls)
     h_psi:calbec :      1.93s CPU      5.54s WALL (     240 calls)
     vloc_psi     :     27.90s CPU     71.69s WALL (     240 calls)
     add_vuspsi   :      0.79s CPU      1.54s WALL (     240 calls)

     General routines
     calbec       :      2.49s CPU      7.14s WALL (     296 calls)
     fft          :      1.81s CPU      4.52s WALL (     181 calls)
     ffts         :      0.26s CPU      0.65s WALL (      28 calls)
     fftw         :     29.84s CPU     77.19s WALL (    6316 calls)
     interpolate  :      0.33s CPU      0.81s WALL (      14 calls)
 
     Parallel routines
     fft_scatt_xy :      4.31s CPU      8.52s WALL (    6525 calls)
     fft_scatt_yz :     12.77s CPU     41.13s WALL (    6525 calls)
 
     PWSCF        :   1m14.37s CPU   3m15.62s WALL

 
   This run was terminated on:   0:47:56  29Oct2019            

=------------------------------------------------------------------------------=
   JOB DONE.
=------------------------------------------------------------------------------=
