
     Program PWSCF v.6.4.1 starts on 29Oct2019 at  1: 2:34 

     This program is part of the open-source Quantum ESPRESSO suite
     for quantum simulation of materials; please cite
         "P. Giannozzi et al., J. Phys.:Condens. Matter 21 395502 (2009);
         "P. Giannozzi et al., J. Phys.:Condens. Matter 29 465901 (2017);
          URL http://www.quantum-espresso.org", 
     in publications or presentations arising from this work. More details at
     http://www.quantum-espresso.org/quote

     Parallel version (MPI), running on     2 processors

     MPI processes distributed on     1 nodes
     R & G space division:  proc/nbgrp/npool/nimage =       2
     Reading input from antimonene_B.3_nscf.in

     Current dimensions of program PWSCF are:
     Max number of different atomic species (ntypx) = 10
     Max number of k-points (npk) =  40000
     Max angular momentum in pseudopotentials (lmaxx) =  3

     Atomic positions and unit cell read from directory:
     ./outdir/antimonene_B.save/
 
               file Sb.pbe-dn-kjpaw_psl.1.0.0.UPF: wavefunction(s)  5S 4D renormalized

     Subspace diagonalization in iterative solution of the eigenvalue problem:
     a serial algorithm will be used

     Message from routine setup:
     DEPRECATED: symmetry with ibrav=0, use correct ibrav instead
 
     Parallelization info
     --------------------
     sticks:   dense  smooth     PW     G-vecs:    dense   smooth      PW
     Min         423     402    117                72853    66418   10241
     Max         424     403    118                72896    66441   10250
     Sum         847     805    235               145749   132859   20491
 


     bravais-lattice index     =            0
     lattice parameter (alat)  =       7.7857  a.u.
     unit-cell volume          =    3051.8600 (a.u.)^3
     number of atoms/cell      =            2
     number of atomic types    =            1
     number of electrons       =        30.00
     number of Kohn-Sham states=           19
     kinetic-energy cutoff     =      47.0000  Ry
     charge density cutoff     =     200.0000  Ry
     Exchange-correlation      = SLA PW PBX PBC ( 1  4  3  4 0 0)

     celldm(1)=   7.785672  celldm(2)=   0.000000  celldm(3)=   0.000000
     celldm(4)=   0.000000  celldm(5)=   0.000000  celldm(6)=   0.000000

     crystal axes: (cart. coord. in units of alat)
               a(1) = (   1.012653   0.000000   0.000000 )  
               a(2) = (  -0.506327   0.876984   0.000000 )  
               a(3) = (   0.000000   0.000000   7.281553 )  

     reciprocal axes: (cart. coord. in units 2 pi/alat)
               b(1) = (  0.987505  0.570136  0.000000 )  
               b(2) = (  0.000000  1.140272  0.000000 )  
               b(3) = (  0.000000  0.000000  0.137333 )  


     PseudoPot. # 1 for Sb read from file:
     /home/latifah/quantumEspresso_2019/pslibrary.1.0.0/Sb.pbe-dn-kjpaw_psl.1.0.0.UPF
     MD5 check sum: 2f07ff22ac188143f4ca0c2e47e96dbe
     Pseudo is Projector augmented-wave + core cor, Zval = 15.0
     Generated using "atomic" code by A. Dal Corso v.6.4.1
     Shape of augmentation charge: PSQ
     Using radial grid of 1243 points,  6 beta functions with: 
                l(1) =   0
                l(2) =   0
                l(3) =   1
                l(4) =   1
                l(5) =   2
                l(6) =   2
     Q(r) pseudized with 0 coefficients 


     atomic species   valence    mass     pseudopotential
        Sb            15.00   121.76000     Sb( 1.00)

      6 Sym. Ops. (no inversion) found



   Cartesian axes

     site n.     atom                  positions (alat units)
         1           Sb  tau(   1) = (  -0.0000000   0.5846557   0.0000000  )
         2           Sb  tau(   2) = (   0.5063267   0.2923279   0.4004854  )

     number of k points=    10 (tetrahedron method)
                       cart. coord. in units 2pi/alat
        k(    1) = (   0.0000000   0.0000000   0.0000000), wk =   0.0312500
        k(    2) = (   0.0000000   0.1425340   0.0000000), wk =   0.1875000
        k(    3) = (   0.0000000   0.2850680   0.0000000), wk =   0.1875000
        k(    4) = (   0.0000000   0.4276021   0.0000000), wk =   0.1875000
        k(    5) = (   0.0000000  -0.5701361   0.0000000), wk =   0.0937500
        k(    6) = (   0.1234381   0.2138010   0.0000000), wk =   0.1875000
        k(    7) = (   0.1234381   0.3563351   0.0000000), wk =   0.3750000
        k(    8) = (   0.1234381   0.4988691   0.0000000), wk =   0.3750000
        k(    9) = (   0.2468762   0.4276021   0.0000000), wk =   0.1875000
        k(   10) = (   0.2468762   0.5701361   0.0000000), wk =   0.1875000

     Dense  grid:   145749 G-vectors     FFT dimensions: (  36,  36, 256)

     Smooth grid:   132859 G-vectors     FFT dimensions: (  36,  36, 250)

     Estimated max dynamical RAM per process >     238.84 MB

     Estimated total dynamical RAM >     477.67 MB

     Check: negative core charge=   -0.000003

     The potential is recalculated from file :
     ./outdir/antimonene_B.save/charge-density


     negative rho (up, down):  2.042E-03 0.000E+00
     Starting wfcs are   18 randomized atomic wfcs +    1 random wfcs
     Checking if some PAW data can be deallocated... 

     Band Structure Calculation
     Davidson diagonalization with overlap

     ethr =  3.33E-13,  avg # of iterations = 58.7

     total cpu time spent up to now is      155.8 secs

     End of band structure calculation

          k = 0.0000 0.0000 0.0000 ( 16665 PWs)   bands (ev):

   -31.3817 -31.3817 -31.3174 -31.3174 -31.2842 -31.2237 -31.2237 -31.1972
   -31.1513 -31.1513 -13.9188  -9.1608  -3.4098  -2.8910  -2.8910  -1.4124
    -0.1583  -0.1583   1.3246

          k = 0.0000 0.1425 0.0000 ( 16659 PWs)   bands (ev):

   -31.3808 -31.3745 -31.3164 -31.3131 -31.2822 -31.2268 -31.2241 -31.1990
   -31.1594 -31.1517 -13.7604  -9.1752  -4.0937  -3.3573  -3.2162  -0.9192
    -0.0480   0.1427   1.5253

          k = 0.0000 0.2851 0.0000 ( 16607 PWs)   bands (ev):

   -31.3786 -31.3548 -31.3144 -31.3013 -31.2754 -31.2356 -31.2264 -31.2046
   -31.1807 -31.1529 -13.2995  -9.3754  -5.3580  -3.7864  -3.3927  -1.5102
     0.4981   0.5127   1.9386

          k = 0.0000 0.4276 0.0000 ( 16609 PWs)   bands (ev):

   -31.3764 -31.3317 -31.3079 -31.2847 -31.2647 -31.2493 -31.2331 -31.2208
   -31.1990 -31.1540 -12.6079 -10.0196  -5.7828  -4.2119  -3.8824  -1.4869
    -0.0321   0.5959   2.4674

          k = 0.0000-0.5701 0.0000 ( 16586 PWs)   bands (ev):

   -31.3754 -31.3248 -31.2940 -31.2666 -31.2663 -31.2593 -31.2394 -31.2378
   -31.2021 -31.1546 -12.0999 -10.5790  -5.7161  -4.3637  -4.2694  -1.2313
    -0.4178   0.5845   2.2461

          k = 0.1234 0.2138 0.0000 ( 16681 PWs)   bands (ev):

   -31.3794 -31.3609 -31.3141 -31.3064 -31.2774 -31.2334 -31.2246 -31.2028
   -31.1741 -31.1527 -13.4500  -9.2797  -4.9731  -3.9884  -3.3074  -0.7178
    -0.2616   0.7389   1.8689

          k = 0.1234 0.3563 0.0000 ( 16600 PWs)   bands (ev):

   -31.3772 -31.3373 -31.3101 -31.2951 -31.2670 -31.2461 -31.2269 -31.2128
   -31.1958 -31.1543 -12.8620  -9.7208  -5.5792  -4.7262  -3.5163  -0.9727
     0.0428   0.5550   2.4380

          k = 0.1234 0.4989 0.0000 ( 16577 PWs)   bands (ev):

   -31.3757 -31.3203 -31.2969 -31.2798 -31.2634 -31.2552 -31.2363 -31.2328
   -31.2046 -31.1555 -12.1494 -10.4627  -5.7534  -4.8409  -4.0976  -0.7726
    -0.2579   0.3740   2.5443

          k = 0.2469 0.4276 0.0000 ( 16601 PWs)   bands (ev):

   -31.3759 -31.3126 -31.3027 -31.2875 -31.2631 -31.2539 -31.2338 -31.2262
   -31.2082 -31.1565 -12.1940 -10.3471  -5.7514  -5.2616  -3.9110  -0.8415
    -0.1440   0.8698   3.2308

          k = 0.2469 0.5701 0.0000 ( 16568 PWs)   bands (ev):

   -31.3753 -31.3035 -31.2862 -31.2825 -31.2746 -31.2540 -31.2463 -31.2261
   -31.2136 -31.1575 -11.6180 -10.9192  -6.0979  -4.8437  -4.3749  -1.1619
     0.4488   0.5886   3.3807

     the Fermi energy is    -2.0159 ev

     Writing output data file antimonene_B.save/
 
     init_run     :      1.89s CPU      4.23s WALL (       1 calls)
     electrons    :     65.27s CPU    144.27s WALL (       1 calls)

     Called by init_run:
     wfcinit      :      0.00s CPU      0.00s WALL (       1 calls)
     potinit      :      0.57s CPU      1.24s WALL (       1 calls)
     hinit0       :      0.89s CPU      1.92s WALL (       1 calls)

     Called by electrons:
     c_bands      :     65.25s CPU    144.19s WALL (       1 calls)
     v_of_rho     :      0.19s CPU      0.44s WALL (       1 calls)
     newd         :      0.25s CPU      0.70s WALL (       1 calls)
     PAW_pot      :      0.27s CPU      0.55s WALL (       1 calls)

     Called by c_bands:
     init_us_2    :      0.04s CPU      0.07s WALL (      10 calls)
     cegterg      :     62.20s CPU    137.75s WALL (      34 calls)

     Called by sum_band:

     Called by *egterg:
     h_psi        :     45.00s CPU     99.02s WALL (     631 calls)
     s_psi        :      1.19s CPU      2.38s WALL (     631 calls)
     g_psi        :      0.22s CPU      0.45s WALL (     587 calls)
     cdiaghg      :      5.50s CPU     12.02s WALL (     597 calls)

     Called by h_psi:
     h_psi:pot    :     44.83s CPU     98.77s WALL (     631 calls)
     h_psi:calbec :      4.40s CPU     10.52s WALL (     631 calls)
     vloc_psi     :     39.18s CPU     86.32s WALL (     631 calls)
     add_vuspsi   :      1.24s CPU      1.92s WALL (     631 calls)

     General routines
     calbec       :      4.39s CPU     10.52s WALL (     631 calls)
     fft          :      0.12s CPU      0.29s WALL (      13 calls)
     ffts         :      0.01s CPU      0.02s WALL (       1 calls)
     fftw         :     34.47s CPU     77.09s WALL (    7308 calls)
     interpolate  :      0.02s CPU      0.05s WALL (       1 calls)
     davcio       :      0.03s CPU      0.05s WALL (      20 calls)
 
     Parallel routines
     fft_scatt_xy :      4.93s CPU      8.61s WALL (    7322 calls)
     fft_scatt_yz :     14.16s CPU     39.19s WALL (    7322 calls)
 
     PWSCF        :   1m14.30s CPU   2m43.80s WALL

 
   This run was terminated on:   1: 5:18  29Oct2019            

=------------------------------------------------------------------------------=
   JOB DONE.
=------------------------------------------------------------------------------=
